version 2
run debug-0-20160928-16:13:50-1925
attr configname debug
attr datetime 20160928-16:13:50
attr experiment debug
attr inifile omnetpp.ini
attr iterationvars ""
attr iterationvars2 $repetition=0
attr measurement ""
attr network warning_scenario
attr processid 1925
attr repetition 0
attr replication #0
attr resultdir results
attr runnumber 0
attr seedset 0

vector 4  warning_scenario.node[0].veinsmobility  posx  ETV
vector 5  warning_scenario.node[0].veinsmobility  posy  ETV
vector 6  warning_scenario.node[0].veinsmobility  speed  ETV
vector 7  warning_scenario.node[0].veinsmobility  acceleration  ETV
vector 8  warning_scenario.node[0].veinsmobility  co2emission  ETV
vector 11  warning_scenario.node[1].veinsmobility  posx  ETV
vector 12  warning_scenario.node[1].veinsmobility  posy  ETV
vector 13  warning_scenario.node[1].veinsmobility  speed  ETV
vector 14  warning_scenario.node[1].veinsmobility  acceleration  ETV
vector 15  warning_scenario.node[1].veinsmobility  co2emission  ETV
vector 18  warning_scenario.node[2].veinsmobility  posx  ETV
vector 19  warning_scenario.node[2].veinsmobility  posy  ETV
vector 20  warning_scenario.node[2].veinsmobility  speed  ETV
vector 21  warning_scenario.node[2].veinsmobility  acceleration  ETV
vector 22  warning_scenario.node[2].veinsmobility  co2emission  ETV
vector 25  warning_scenario.node[3].veinsmobility  posx  ETV
vector 26  warning_scenario.node[3].veinsmobility  posy  ETV
vector 27  warning_scenario.node[3].veinsmobility  speed  ETV
vector 28  warning_scenario.node[3].veinsmobility  acceleration  ETV
vector 29  warning_scenario.node[3].veinsmobility  co2emission  ETV
vector 32  warning_scenario.node[4].veinsmobility  posx  ETV
vector 33  warning_scenario.node[4].veinsmobility  posy  ETV
vector 34  warning_scenario.node[4].veinsmobility  speed  ETV
vector 35  warning_scenario.node[4].veinsmobility  acceleration  ETV
vector 36  warning_scenario.node[4].veinsmobility  co2emission  ETV
vector 39  warning_scenario.node[5].veinsmobility  posx  ETV
vector 40  warning_scenario.node[5].veinsmobility  posy  ETV
vector 41  warning_scenario.node[5].veinsmobility  speed  ETV
vector 42  warning_scenario.node[5].veinsmobility  acceleration  ETV
vector 43  warning_scenario.node[5].veinsmobility  co2emission  ETV
vector 46  warning_scenario.node[6].veinsmobility  posx  ETV
vector 47  warning_scenario.node[6].veinsmobility  posy  ETV
vector 48  warning_scenario.node[6].veinsmobility  speed  ETV
vector 49  warning_scenario.node[6].veinsmobility  acceleration  ETV
vector 50  warning_scenario.node[6].veinsmobility  co2emission  ETV
vector 53  warning_scenario.node[7].veinsmobility  posx  ETV
vector 54  warning_scenario.node[7].veinsmobility  posy  ETV
vector 55  warning_scenario.node[7].veinsmobility  speed  ETV
vector 56  warning_scenario.node[7].veinsmobility  acceleration  ETV
vector 57  warning_scenario.node[7].veinsmobility  co2emission  ETV
vector 60  warning_scenario.node[8].veinsmobility  posx  ETV
vector 61  warning_scenario.node[8].veinsmobility  posy  ETV
vector 62  warning_scenario.node[8].veinsmobility  speed  ETV
vector 63  warning_scenario.node[8].veinsmobility  acceleration  ETV
vector 64  warning_scenario.node[8].veinsmobility  co2emission  ETV
vector 67  warning_scenario.node[9].veinsmobility  posx  ETV
vector 68  warning_scenario.node[9].veinsmobility  posy  ETV
vector 69  warning_scenario.node[9].veinsmobility  speed  ETV
vector 70  warning_scenario.node[9].veinsmobility  acceleration  ETV
vector 71  warning_scenario.node[9].veinsmobility  co2emission  ETV
vector 74  warning_scenario.node[10].veinsmobility  posx  ETV
vector 75  warning_scenario.node[10].veinsmobility  posy  ETV
vector 76  warning_scenario.node[10].veinsmobility  speed  ETV
vector 77  warning_scenario.node[10].veinsmobility  acceleration  ETV
vector 78  warning_scenario.node[10].veinsmobility  co2emission  ETV
vector 81  warning_scenario.node[11].veinsmobility  posx  ETV
vector 82  warning_scenario.node[11].veinsmobility  posy  ETV
vector 83  warning_scenario.node[11].veinsmobility  speed  ETV
vector 84  warning_scenario.node[11].veinsmobility  acceleration  ETV
vector 85  warning_scenario.node[11].veinsmobility  co2emission  ETV
vector 88  warning_scenario.node[12].veinsmobility  posx  ETV
vector 89  warning_scenario.node[12].veinsmobility  posy  ETV
vector 90  warning_scenario.node[12].veinsmobility  speed  ETV
vector 91  warning_scenario.node[12].veinsmobility  acceleration  ETV
vector 92  warning_scenario.node[12].veinsmobility  co2emission  ETV
vector 95  warning_scenario.node[13].veinsmobility  posx  ETV
vector 96  warning_scenario.node[13].veinsmobility  posy  ETV
vector 97  warning_scenario.node[13].veinsmobility  speed  ETV
vector 98  warning_scenario.node[13].veinsmobility  acceleration  ETV
vector 99  warning_scenario.node[13].veinsmobility  co2emission  ETV
vector 102  warning_scenario.node[14].veinsmobility  posx  ETV
vector 103  warning_scenario.node[14].veinsmobility  posy  ETV
vector 104  warning_scenario.node[14].veinsmobility  speed  ETV
vector 105  warning_scenario.node[14].veinsmobility  acceleration  ETV
vector 106  warning_scenario.node[14].veinsmobility  co2emission  ETV
vector 109  warning_scenario.node[15].veinsmobility  posx  ETV
vector 110  warning_scenario.node[15].veinsmobility  posy  ETV
vector 111  warning_scenario.node[15].veinsmobility  speed  ETV
vector 112  warning_scenario.node[15].veinsmobility  acceleration  ETV
vector 113  warning_scenario.node[15].veinsmobility  co2emission  ETV
vector 116  warning_scenario.node[16].veinsmobility  posx  ETV
vector 117  warning_scenario.node[16].veinsmobility  posy  ETV
vector 118  warning_scenario.node[16].veinsmobility  speed  ETV
vector 119  warning_scenario.node[16].veinsmobility  acceleration  ETV
vector 120  warning_scenario.node[16].veinsmobility  co2emission  ETV
vector 123  warning_scenario.node[17].veinsmobility  posx  ETV
vector 124  warning_scenario.node[17].veinsmobility  posy  ETV
vector 125  warning_scenario.node[17].veinsmobility  speed  ETV
vector 126  warning_scenario.node[17].veinsmobility  acceleration  ETV
vector 127  warning_scenario.node[17].veinsmobility  co2emission  ETV
vector 130  warning_scenario.node[18].veinsmobility  posx  ETV
vector 131  warning_scenario.node[18].veinsmobility  posy  ETV
vector 132  warning_scenario.node[18].veinsmobility  speed  ETV
vector 133  warning_scenario.node[18].veinsmobility  acceleration  ETV
vector 134  warning_scenario.node[18].veinsmobility  co2emission  ETV
43	8415	21769	2.7597875440633
43	8571	21770	4.1354863895906
43	8727	21771	6.6615308630228
43	8883	21772	4.7201896370539
43	9039	21773	0.973
43	9195	21774	0.973
43	9351	21775	1.9407416328213
43	9507	21776	1.495479018512
43	9663	21777	2.2644419207668
43	9819	21778	0.973
43	9975	21779	0.973
43	10131	21780	2.4487703022953
43	10287	21781	0.973
43	10443	21782	1.5157805359223
43	10599	21783	0.973
43	10755	21784	2.6806288406012
43	10911	21785	0.973
43	11069	21786	1.8306875944049
43	11225	21787	1.5823311778947
43	11383	21788	0.973
43	11541	21789	2.1766359200549
43	11699	21790	1.2217259838993
43	11867	21791	0.973
43	12035	21792	1.7544946953405
43	12203	21793	2.3378217250189
43	12382	21794	0.973
43	12561	21795	1.5378202229693
43	12750	21796	2.5420991054568
43	12970	21797	1.442088510906
43	13149	21798	0.973
43	13338	21799	0.973
43	13527	21800	2.3766244852261
43	13716	21801	1.8315615317625
43	13905	21802	4.7304643565916
43	14094	21803	5.2365794554298
43	14283	21804	2.582101287217
43	14472	21805	1.6454072990974
43	14660	21806	0.973
43	14848	21807	1.7953134488354
43	15037	21808	1.4436981315284
43	15224	21809	2.388831958446
43	15412	21810	0.973
43	15601	21811	3.8727963175358
43	15788	21812	0.973
43	15977	21813	2.8142809768907
43	16164	21814	2.5093446168131
43	16351	21815	0.973
43	16543	21816	4.3710963387289
43	16735	21817	0.973
43	16927	21818	2.3858931815149
43	17119	21819	3.0877513907346
43	17311	21820	0.973
43	17503	21821	0.973
43	17695	21822	2.7362682731782
43	17887	21823	3.2105197056682
43	18079	21824	1.7527564154993
43	18271	21825	0.973
43	18463	21826	2.6017534456748
43	18655	21827	0.973
43	18847	21828	0.973
43	19039	21829	3.597715638211
43	19231	21830	0.973
43	19423	21831	0.973
43	19615	21832	3.1204586040208
43	19807	21833	1.9035231359525
43	19999	21834	0.973
43	20191	21835	0.973
43	20383	21836	3.3610091337269
43	20575	21837	0.973
43	20767	21838	1.895960698588
43	20959	21839	1.7023842216744
43	21151	21840	0.973
43	21343	21841	1.3528340536343
43	21535	21842	3.7365818950554
43	21727	21843	0.973
43	21918	21844	1.7982637056183
43	22111	21845	1.2826500322602
43	22303	21846	3.0319305845985
43	22495	21847	0.973
43	22687	21848	1.5882731789966
43	22881	21849	0.973
43	23075	21850	2.6642148432864
43	23266	21851	3.2712597315072
43	23458	21852	1.9411661842779
43	23659	21853	0.973
43	23862	21854	3.5589831847959
43	24064	21855	0.973
43	24264	21856	3.1921527149496
43	24467	21857	0.973
43	24668	21858	1.5296087307026
43	24869	21859	2.2238539906226
43	25079	21860	0.973
43	25289	21861	0.973
43	25498	21862	6.3094420153714
43	25708	21863	3.8304515359874
43	25918	21864	0.973
43	26128	21865	0.973
43	26338	21866	1.4515378707131
43	26548	21867	2.6070108174904
43	26758	21868	0.973
43	26968	21869	0.973
43	27178	21870	1.6156467185752
43	27388	21871	2.2722532018095
43	27598	21872	0.973
43	27808	21873	0.973
43	28018	21874	2.5996935618312
43	28228	21875	1.435299834283
43	28438	21876	1.4096497539193
43	28658	21877	0.973
43	28878	21878	2.6017565139255
43	29098	21879	0.973
43	29318	21880	1.9350542564799
43	29538	21881	1.7492326381791
43	29758	21882	0.973
43	29978	21883	1.5388431953516
43	30198	21884	0.973
43	30418	21885	2.0032803421542
43	30639	21886	1.8126481353842
43	30859	21887	0.973
43	31079	21888	2.5196011193519
43	31300	21889	1.5352783546967
43	31520	21890	1.2835882161852
43	31740	21891	1.9267284592723
43	31960	21892	0.973
43	32181	21893	1.8028033593564
43	32402	21894	0.973
43	32623	21895	0.973
43	32844	21896	0.973
43	33065	21897	2.2541397666552
43	33286	21898	0.973
43	33507	21899	2.2306900438064
43	33728	21900	0.973
43	33949	21901	0.973
43	34170	21902	2.0411193817721
43	34391	21903	2.1139384318679
43	34612	21904	1.4749169705673
43	34833	21905	0.973
43	35054	21906	1.8015913202678
43	35343	21907	2.3030030295304
43	35632	21908	1.402279809955
43	35921	21909	0.973
43	36210	21910	1.6720779072322
43	36498	21911	1.9313690179616
43	36786	21912	0.973
43	37074	21913	0.973
43	37362	21914	1.9496973502752
43	37650	21915	1.4834664768278
43	37939	21916	0.973
43	38218	21917	0.973
43	38497	21918	3.1706049826239
43	38776	21919	0.973
43	39055	21920	1.323034176864
43	39332	21921	2.9362435211352
43	39601	21922	1.2247829865974
43	39869	21923	1.334443365004
43	40138	21924	0.973
43	40406	21925	2.468873860887
43	40675	21926	1.4036422447774
43	40944	21927	0.973
43	41213	21928	2.1457819239656
43	41482	21929	0.973
43	41751	21930	0.973
43	42020	21931	2.9223100061559
43	42289	21932	0.973
43	42558	21933	1.8366722557454
43	42827	21934	4.108468067392
43	43096	21935	5.3981756330747
43	43365	21936	1.247196729067
43	43634	21937	3.0036967772551
43	43903	21938	0.973
43	44172	21939	3.232862115179
43	44526	21940	0.973
43	44879	21941	3.3388048571389
43	45232	21942	0.973
43	45583	21943	1.9612963861243
43	45934	21944	0.973
43	46284	21945	0.973
43	46635	21946	3.9127338532494
43	46975	21947	0.973
43	47315	21948	4.2152513901554
43	47655	21949	1.2375373485174
43	47995	21950	0.973
43	48335	21951	0.973
43	48675	21952	2.6082641518222
43	49014	21953	1.3641893668005
43	49354	21954	0.973
43	49693	21955	3.4646504430017
43	50033	21956	0.973
43	50370	21957	1.4502033254998
43	50710	21958	2.9028061783326
43	51047	21959	0.973
43	51386	21960	3.6275798556637
43	51725	21961	0.973
43	52064	21962	2.9209419821565
43	52393	21963	2.8998945349287
43	52720	21964	0.973
43	53038	21965	0.973
43	53354	21966	2.9086148674156
43	53671	21967	3.1990384558768
43	53988	21968	1.3488095292883
43	54305	21969	2.0284092290182
43	54622	21970	1.3494237290194
43	54938	21971	1.7047514535566
43	55254	21972	0.973
43	55560	21973	2.2377553060707
43	55865	21974	2.9427576372866
43	56170	21975	1.6561448194865
43	56496	21976	0.973
43	56820	21977	1.7689391423853
43	57144	21978	1.6686261218374
43	57470	21979	0.973
43	57794	21980	4.1423541886531
43	58117	21981	1.23969225889
43	58514	21982	0.973
43	58911	21983	2.483025137765
43	59307	21984	0.973
43	59705	21985	3.5485561324899
43	60091	21986	0.973
43	60477	21987	0.973
43	60863	21988	4.157995261847
43	61248	21989	1.2250020736138
43	61632	21990	0.973
43	62018	21991	4.2135144223409
43	62403	21992	0.973
43	62788	21993	2.4033484689458
43	63172	21994	0.973
43	63556	21995	1.6593668982017
43	63992	21996	3.623941722247
43	64376	21997	0.973
43	64760	21998	0.973
43	65154	21999	1.8871838404431
43	65548	22000	2.9923281957639
43	65937	22001	0.973
43	66326	22002	0.973
43	66705	22003	5.1665065179818
43	67084	22004	3.9378343526012
43	67463	22005	5.9428888297182
43	67842	22006	1.9216574833956
43	68221	22007	2.6051037644293
43	68600	22008	0.973
43	68979	22009	1.3745188842504
43	69358	22010	2.0579590599523
43	69727	22011	0.973
43	70096	22012	0.973
43	70465	22013	0.973
43	70834	22014	1.1103034455513
43	71203	22015	1.1101142640828
43	71571	22016	1.1100148037316
43	71940	22017	1.1100069037077
43	72308	22018	1.1100002883393
43	72676	22019	1.1100001006926
43	73045	22020	1.1100000404417
43	73413	22021	1.1100000212836
43	73781	22022	1.1100000143017
43	74159	22023	1.1100000035367
43	74535	22024	1.1100000000485
43	74904	22025	1.11
43	75273	22026	1.11
43	75646	22027	1.11
43	76018	22028	1.11
43	76388	22029	1.11
43	76747	22030	1.11
43	77096	22031	1.11
43	77445	22032	1.11
43	77804	22033	1.11
43	78163	22034	1.11
43	78554	22035	1.11
43	78945	22036	1.11
43	79303	22037	1.11
43	79671	22038	1.11
43	80039	22039	1.11
43	80407	22040	1.11
43	80774	22041	1.11
43	81151	22042	1.11
43	81528	22043	1.11
43	81905	22044	1.11
43	82270	22045	1.11
43	82636	22046	2.0103489452788
43	83001	22047	4.1082590233408
43	83367	22048	5.6095435413751
43	83733	22049	6.1035392978324
43	84099	22050	1.291864924729
43	84464	22051	2.9618868290474
43	84829	22052	1.7381941444453
43	85194	22053	1.5225958195543
43	85559	22054	0.973
43	85924	22055	1.6253023327083
43	86279	22056	3.3293389507155
43	86634	22057	0.973
43	86989	22058	0.973
43	87344	22059	0.973
43	87699	22060	0.973
43	88054	22061	0.973
43	88409	22062	1.1110653712897
43	88764	22063	1.1102876573915
43	89119	22064	1.1100850184744
43	89474	22065	1.1100040459369
43	89829	22066	1.110002049968
43	90184	22067	1.1100006457143
43	90568	22068	1.110000445931
43	90952	22069	1.1100000005837
43	91346	22070	1.1100000004251
43	91740	22071	1.1100000000275
43	92134	22072	1.1100000000172
43	92528	22073	1.1100000000064
43	92922	22074	1.1100000000009
43	93316	22075	1.1100000000001
43	93710	22076	1.11
43	94104	22077	1.11
43	94498	22078	1.11
43	94893	22079	1.11
43	95289	22080	1.11
43	95685	22081	1.9635298428101
43	96080	22082	2.9416028480378
43	96476	22083	2.9650287938291
43	96873	22084	3.4883346483757
43	97269	22085	4.1404658258488
43	97657	22086	4.3721487501263
43	98044	22087	1.3780614992467
43	98431	22088	1.3458956729975
43	98817	22089	0.973
43	99195	22090	1.9670123995369
43	99571	22091	2.294309242562
43	99946	22092	1.3385752136258
43	100325	22093	0.973
43	100702	22094	1.4425661419341
43	101080	22095	1.5812306187267
43	101458	22096	1.6038765944925
43	101845	22097	0.973
43	102234	22098	0.973
43	102664	22099	3.0416764678752
43	103052	22100	0.973
43	103441	22101	2.3581005698445
43	103828	22102	0.973
43	104217	22103	2.0605560097628
43	104605	22104	1.9372981642873
43	104993	22105	0.973
43	105382	22106	1.8553572339373
43	105770	22107	0.973
43	106159	22108	1.822416589035
43	106547	22109	0.973
43	106935	22110	2.4363716659773
43	107324	22111	0.973
43	107712	22112	2.7574415747691
43	108101	22113	0.973
43	108488	22114	1.4035411065825
43	108877	22115	2.3579713425194
43	109263	22116	0.973
43	109651	22117	0.973
43	110039	22118	1.4454441766915
43	110425	22119	0.973
43	110812	22120	0.973
43	111209	22121	1.5534769510454
43	111604	22122	0.973
43	112000	22123	3.6080256878645
43	112397	22124	4.1629036475289
43	112782	22125	4.7267088426089
43	113167	22126	2.7628446306202
43	113553	22127	2.4037752652684
43	113938	22128	0.973
43	114324	22129	0.973
43	114709	22130	4.2571327710552
43	115094	22131	1.3409679313932
43	115490	22132	0.973
43	115885	22133	3.2202132519503
43	116281	22134	0.973
43	116676	22135	1.9104670419576
43	117073	22136	0.973
43	117470	22137	0.973
43	117866	22138	4.6477135243573
43	118262	22139	5.9017610632684
43	118658	22140	2.9203441464838
43	119054	22141	1.3664263543957
43	119451	22142	4.3744192868733
43	119848	22143	0.973
43	120245	22144	1.4175654734184
43	120642	22145	1.9890074280985
43	121039	22146	2.1661821674454
43	121436	22147	0.973
43	121833	22148	2.4979290726062
43	122229	22149	0.973
43	122625	22150	1.2177708137451
43	123022	22151	1.4783973335895
43	123418	22152	4.25216973718
43	123812	22153	1.5614775784803
43	124209	22154	0.973
43	124606	22155	1.2685433397504
43	125004	22156	3.2491709877818
43	125401	22157	2.491453107661
43	125800	22158	0.973
43	126198	22159	2.7183850351225
43	126597	22160	0.973
43	126994	22161	4.4177677816517
43	127391	22162	0.973
43	127850	22163	4.2357827717675
43	128308	22164	0.973
43	128764	22165	2.6296206744198
43	129222	22166	1.3959732966108
43	129678	22167	1.8288849498213
43	130134	22168	0.973
43	130590	22169	3.5912634741295
43	131045	22170	0.973
43	131501	22171	1.4718754664314
43	131958	22172	3.6461244151406
43	132415	22173	0.973
43	132873	22174	2.8711315325167
43	133329	22175	0.973
43	133785	22176	2.3567327462646
43	134243	22177	1.855818054283
43	134700	22178	0.973
43	135158	22179	3.3776685992529
43	135616	22180	1.377119121761
43	136074	22181	1.5066079577741
43	136532	22182	0.973
43	136990	22183	6.1887122188013
43	137446	22184	4.5050260619401
43	137914	22185	0.973
43	138382	22186	1.8201491941926
43	138849	22187	3.6876592311099
43	139317	22188	0.973
43	139785	22189	3.1883808965248
43	140253	22190	1.2330093733498
43	140720	22191	1.5444033014101
43	141188	22192	0.973
43	141654	22193	4.4131384025153
43	142131	22194	0.973
43	142618	22195	3.0493482058151
43	143105	22196	0.973
43	143592	22197	3.6984660847978
43	144078	22198	0.973
43	144566	22199	4.0152306357567
42	8415	21769	1.6708939873381
42	8571	21770	2.0071809895802
42	8727	21771	2.5731536938343
42	8883	21772	1.3316336434008
42	9039	21773	-0.3191733450396
42	9195	21774	-0.21978447581641
42	9351	21775	0.14372612482402
42	9507	21776	-0.056377788679674
42	9663	21777	0.27645161855034
42	9819	21778	-3.9050030543438
42	9975	21779	-0.41911220743787
42	10131	21780	0.74382177826483
42	10287	21781	-0.50766616610345
42	10443	21782	0.10057453000918
42	10599	21783	-0.36044965817127
42	10755	21784	0.88647366298828
42	10911	21785	-1.1420681333868
42	11069	21786	0.37007499986794
42	11225	21787	0.15809829027858
42	11383	21788	-0.55728425562847
42	11541	21789	0.61351675889455
42	11699	21790	-0.12230659571942
42	11867	21791	-0.44569636743981
42	12035	21792	0.31300187478773
42	12203	21793	0.66846770816483
42	12382	21794	-0.86835782951675
42	12561	21795	0.14136222889647
42	12750	21796	0.80167012966704
42	12970	21797	0.021116260858252
42	13149	21798	-0.58311988809146
42	13338	21799	-0.26628755365964
42	13527	21800	0.70435715317726
42	13716	21801	0.28377146639396
42	13905	21802	1.7193646281958
42	14094	21803	1.6007617413036
42	14283	21804	0.3915979646612
42	14472	21805	-0.0077721344539903
42	14660	21806	-0.76767180829775
42	14848	21807	0.08331623179838
42	15037	21808	-0.076348742935807
42	15224	21809	0.33757838394959
42	15412	21810	-0.24907003429253
42	15601	21811	0.91290618493222
42	15788	21812	-1.1472199700074
42	15977	21813	0.52390509280376
42	16164	21814	0.36248333160765
42	16351	21815	-0.88245252231136
42	16543	21816	1.1233892240096
42	16735	21817	-0.82147970593069
42	16927	21818	0.32623105701059
42	17119	21819	0.57999718713108
42	17311	21820	-1.0001192343887
42	17503	21821	-0.20452887841966
42	17695	21822	0.49136129121762
42	17887	21823	0.63797511395533
42	18079	21824	0.02897455645725
42	18271	21825	-0.31755503430031
42	18463	21826	0.37785481209867
42	18655	21827	-0.67592984247021
42	18847	21828	-0.43317819437943
42	19039	21829	0.82200981546193
42	19231	21830	-0.24910915717482
42	19423	21831	-0.1967628005892
42	19615	21832	0.60406765465159
42	19807	21833	0.090772046148778
42	19999	21834	-0.57803941126913
42	20191	21835	-0.40499004947487
42	20383	21836	0.72250485701952
42	20575	21837	-0.32709923388902
42	20767	21838	0.10766744092107
42	20959	21839	0.022520383540542
42	21151	21840	-0.54266287812498
42	21343	21841	-0.11697641892824
42	21535	21842	0.87969014686532
42	21727	21843	-0.59995604720898
42	21918	21844	0.076235536136664
42	22111	21845	-0.15296151924413
42	22303	21846	0.58830962537322
42	22495	21847	-0.26799119045027
42	22687	21848	-0.022429380123503
42	22881	21849	-0.58281956885476
42	23075	21850	0.4630822993815
42	23266	21851	0.66523127495311
42	23458	21852	0.10495088212192
42	23659	21853	-1.1406987177907
42	23862	21854	0.8108779290691
42	24064	21855	-0.30271472514141
42	24264	21856	0.62314698311966
42	24467	21857	-1.0865347957239
42	24668	21858	-0.034989210707137
42	24869	21859	0.2713344959775
42	25079	21860	-0.27605209266767
42	25289	21861	-2.269057698611
42	25498	21862	2.2104634557385
42	25708	21863	0.91992185326929
42	25918	21864	-4.0899678917329
42	26128	21865	-0.54106268126052
42	26338	21866	0.06249536043033
42	26548	21867	0.8194224691717
42	26758	21868	-0.82124462418724
42	26968	21869	-0.44530634752009
42	27178	21870	0.21361266686581
42	27388	21871	0.64807718002703
42	27598	21872	-0.22674268966075
42	27808	21873	-0.42532958847005
42	28018	21874	0.85166297163814
42	28228	21875	0.018595673632808
42	28438	21876	0.00030832209158671
42	28658	21877	-0.69710247442126
42	28878	21878	0.82599998775404
42	29098	21879	-0.79495489811525
42	29318	21880	0.40351122389548
42	29538	21881	0.24378987171221
42	29758	21882	-0.56236828742549
42	29978	21883	0.12055762535892
42	30198	21884	-0.5927752395859
42	30418	21885	0.49330683851149
42	30639	21886	0.3108740682248
42	30859	21887	-0.81163246147335
42	31079	21888	0.83294573209714
42	31300	21889	0.097330360603519
42	31520	21890	-0.083836018131114
42	31740	21891	0.35439267414622
42	31960	21892	-0.2067334639607
42	32181	21893	0.26338343082462
42	32402	21894	-0.30241350815631
42	32623	21895	-0.29778301969636
42	32844	21896	-0.64562992576975
42	33065	21897	0.66170038541313
42	33286	21898	-0.51804510976654
42	33507	21899	0.62660330808721
42	33728	21900	-0.38615407771431
42	33949	21901	-0.13521159088705
42	34170	21902	0.48898615678772
42	34391	21903	0.48103277038317
42	34612	21904	0.036955411359667
42	34833	21905	-1.2881261569448
42	35054	21906	0.35301022485364
42	35343	21907	0.64887039491441
42	35632	21908	-0.0016399317653848
42	35921	21909	-0.30387711348012
42	36210	21910	0.2011322180042
42	36498	21911	0.35456189003307
42	36786	21912	-0.21289504535962
42	37074	21913	-0.40084875519387
42	37362	21914	0.39071130554657
42	37650	21915	0.052871941053309
42	37939	21916	-0.54491569327656
42	38218	21917	-0.50359239424579
42	38497	21918	1.2135352211073
42	38776	21919	-1.0736389699392
42	39055	21920	-0.028470848477445
42	39332	21921	1.0602743333438
42	39601	21922	-0.13125494371634
42	39869	21923	-0.051374046341516
42	40138	21924	-0.82847514606547
42	40406	21925	0.77455257726833
42	40675	21926	0.00063476259820217
42	40944	21927	-0.89180554840714
42	41213	21928	0.5839179658331
42	41482	21929	-0.2882801970467
42	41751	21930	-0.2501137890853
42	42020	21931	1.0562187449774
42	42289	21932	-0.41334696016274
42	42558	21933	0.30547852953896
42	42827	21934	1.4841610730626
42	43096	21935	1.7376867055893
42	43365	21936	-0.16614164887304
42	43634	21937	0.59562814657111
42	43903	21938	-0.55327489736955
42	44172	21939	0.68259912328794
42	44526	21940	-0.73098998772912
42	44879	21941	0.72866577312816
42	45232	21942	-0.31358286419418
42	45583	21943	0.14081682343967
42	45934	21944	-0.41301149192732
42	46284	21945	-0.21915243128315
42	46635	21946	0.9568942088401
42	46975	21947	-0.98193734709639
42	47315	21948	1.0728125407826
42	47655	21949	-0.18107746834867
42	47995	21950	-0.34326216070913
42	48335	21951	-0.42163270870224
42	48675	21952	0.43336882274598
42	49014	21953	-0.11805665239226
42	49354	21954	-0.22040549311787
42	49693	21955	0.76550542640034
42	50033	21956	-0.67423517499119
42	50370	21957	-0.074394348310307
42	50710	21958	0.54424096725415
42	51047	21959	-0.54595599661116
42	51386	21960	0.82602533537429
42	51725	21961	-0.92254840617534
42	52064	21962	0.55962147002574
42	52393	21963	0.50672335261479
42	52720	21964	-0.56826843456365
42	53038	21965	-0.54002889855765
42	53354	21966	0.55816495739855
42	53671	21967	0.62424732027575
42	53988	21968	-0.13774220256601
42	54305	21969	0.14048191274051
42	54622	21970	-0.13753709278535
42	54938	21971	0.010905558452942
42	55254	21972	-1.157718792744
42	55560	21973	0.28567411396653
42	55865	21974	0.55633626994677
42	56170	21975	0.00043204338289726
42	56496	21976	-0.24155179464724
42	56820	21977	0.05612033768557
42	57144	21978	0.011543435021304
42	57470	21979	-0.3997169357026
42	57794	21980	1.0138339977013
42	58117	21981	-0.18287373818457
42	58514	21982	-0.70132514357101
42	58911	21983	0.36329237180762
42	59307	21984	-0.37544416303281
42	59705	21985	0.78110885256901
42	60091	21986	-0.25473130589817
42	60477	21987	-0.87518329191953
42	60863	21988	1.0471285472857
42	61248	21989	-0.18653530157171
42	61632	21990	-0.88493108486291
42	62018	21991	1.0706408087164
42	62403	21992	-0.31047622070182
42	62788	21993	0.30791489186231
42	63172	21994	-0.62197820157744
42	63556	21995	0.013978484016844
42	63992	21996	0.80065089224372
42	64376	21997	-0.88300405703485
42	64760	21998	-0.29648421234451
42	65154	21999	0.12784719765186
42	65548	22000	0.58130426460411
42	65937	22001	-1.7936996126213
42	66326	22002	-3.9629789940668
42	66705	22003	2.4668930670246
42	67084	22004	1.3221011202084
42	67463	22005	1.8810357377417
42	67842	22006	0.11558001548983
42	68221	22007	0.38343521733768
42	68600	22008	-0.31273314110003
42	68979	22009	-0.12009510181379
42	69358	22010	0.16861413028091
42	69727	22011	-4.5
42	70096	22012	-2.192319950119
42	70465	22013	-2.9849371772564
42	70834	22014	-0.028872774263828
42	71203	22015	-0.0049222389078065
42	71571	22016	-0.0021182151506296
42	71940	22017	-0.00016692775181902
42	72308	22018	-0.00013724984674968
42	72676	22019	-3.893919549349e-06
42	73045	22020	-1.2490159473696e-06
42	73413	22021	-3.9714589337695e-07
42	73781	22022	-1.4473435963277e-07
42	74159	22023	-2.2315434592127e-07
42	74535	22024	-7.2309026094027e-08
42	74904	22025	-1.0056106709193e-09
42	75273	22026	-2.1762784277851e-13
42	75646	22027	-3.4216539791512e-14
42	76018	22028	-1.8998134856764e-14
42	76388	22029	-1.0285959728112e-15
42	76747	22030	6.5973018581757e-16
42	77096	22031	-1.9510810617657e-15
42	77445	22032	-1.1913071272227e-17
42	77804	22033	1.6400269257771e-15
42	78163	22034	3.8280461628956e-16
42	78554	22035	-1.4735130506799e-15
42	78945	22036	2.4585126485463e-16
42	79303	22037	-6.5130961312235e-16
42	79671	22038	5.2776146533238e-16
42	80039	22039	1.540419736247e-15
42	80407	22040	-9.4278354512982e-16
42	80774	22041	-3.5548875948561e-16
42	81151	22042	1.1153626598654e-15
42	81528	22043	-1.966657642851e-15
42	81905	22044	1.5239568605956e-16
42	82270	22045	1.5130727083165e-16
42	82636	22046	1.8347392021678
42	83001	22047	2.598548961943
42	83367	22048	2.4815434394404
42	83733	22049	2.0739636797458
42	84099	22050	-0.14482069069992
42	84464	22051	0.58107650741003
42	84829	22052	0.040856415079906
42	85194	22053	-0.052268566051497
42	85559	22054	-0.37836571901571
42	85924	22055	0.005023863282986
42	86279	22056	0.70806601785589
42	86634	22057	-0.66236077561043
42	86989	22058	-0.45203733296732
42	87344	22059	-3.2035616782843
42	87699	22060	-3.5280261751066
42	88054	22061	-1.8267668017856
42	88409	22062	-0.046788519769467
42	88764	22063	-0.02211802119784
42	89119	22064	-0.0048972003841113
42	89474	22065	-0.0017220072615122
42	89829	22066	-4.2094662771422e-05
42	90184	22067	-2.9116727521798e-05
42	90568	22068	-4.1432009212595e-06
42	90952	22069	-9.2320989899129e-06
42	91346	22070	-3.2895777555257e-09
42	91740	22071	-8.2411642348008e-09
42	92134	22072	-2.1470691478332e-10
42	92528	22073	-2.2263782904383e-10
42	92922	22074	-1.145406413119e-10
42	93316	22075	-1.666952094882e-11
42	93710	22076	-1.1628491949171e-12
42	94104	22077	-6.8801614686539e-13
42	94498	22078	-2.5724271976623e-13
42	94893	22079	-3.7316724758967e-14
42	95289	22080	-1.0683562625086e-15
42	95685	22081	1.7839175707428
42	96080	22082	1.8729772093473
42	96476	22083	1.3328860707348
42	96873	22084	1.3428391641472
42	97269	22085	1.4025352969533
42	97657	22086	1.2715985515527
42	98044	22087	-0.10557668297552
42	98431	22088	-0.11828828096931
42	98817	22089	-3.9918550114901
42	99195	22090	0.46571801148821
42	99571	22091	0.62243896655273
42	99946	22092	-0.050469512166455
42	100325	22093	-0.76698803366162
42	100702	22094	0.059250059002078
42	101080	22095	0.15944092324935
42	101458	22096	0.16481221243739
42	101845	22097	-0.3972880438203
42	102234	22098	-1.1852785126654
42	102664	22099	1.3323591061517
42	103052	22100	-0.26538185901008
42	103441	22101	0.70651663276367
42	103828	22102	-0.54217846174724
42	104217	22103	0.49373766391072
42	104605	22104	0.36311518000439
42	104993	22105	-0.59832373631652
42	105382	22106	0.33156074739527
42	105770	22107	-0.82672401759773
42	106159	22108	0.35639363091905
42	106547	22109	-0.24056205337402
42	106935	22110	0.74907399199437
42	107324	22111	-0.85729467838537
42	107712	22112	0.96030965931714
42	108101	22113	-0.7200360213872
42	108488	22114	0.027060517529025
42	108877	22115	0.67810576271731
42	109263	22116	-0.2410303030163
42	109651	22117	-0.24607204801869
42	110039	22118	0.047913264716044
42	110425	22119	-0.25946400843095
42	110812	22120	-0.27478061760776
42	111209	22121	0.15862346673384
42	111604	22122	-0.71815493810229
42	112000	22123	1.5618520547427
42	112397	22124	1.5041846818058
42	112782	22125	1.4723362801829
42	113167	22126	0.50254649254185
42	113553	22127	0.321130219521