version 2
run nodebug-0-20160907-15:19:14-17098
attr configname nodebug
attr datetime 20160907-15:19:14
attr experiment nodebug
attr inifile omnetpp.ini
attr iterationvars ""
attr iterationvars2 $repetition=0
attr measurement ""
attr network warning_scenario
attr processid 17098
attr repetition 0
attr replication #0
attr resultdir results
attr runnumber 0
attr seedset 0

vector 4  warning_scenario.node[0].veinsmobility  posx  ETV
vector 5  warning_scenario.node[0].veinsmobility  posy  ETV
vector 6  warning_scenario.node[0].veinsmobility  speed  ETV
vector 7  warning_scenario.node[0].veinsmobility  acceleration  ETV
vector 8  warning_scenario.node[0].veinsmobility  co2emission  ETV
vector 11  warning_scenario.node[1].veinsmobility  posx  ETV
vector 12  warning_scenario.node[1].veinsmobility  posy  ETV
vector 13  warning_scenario.node[1].veinsmobility  speed  ETV
vector 14  warning_scenario.node[1].veinsmobility  acceleration  ETV
vector 15  warning_scenario.node[1].veinsmobility  co2emission  ETV
vector 18  warning_scenario.node[2].veinsmobility  posx  ETV
vector 19  warning_scenario.node[2].veinsmobility  posy  ETV
vector 20  warning_scenario.node[2].veinsmobility  speed  ETV
vector 21  warning_scenario.node[2].veinsmobility  acceleration  ETV
vector 22  warning_scenario.node[2].veinsmobility  co2emission  ETV
vector 25  warning_scenario.node[3].veinsmobility  posx  ETV
vector 26  warning_scenario.node[3].veinsmobility  posy  ETV
vector 27  warning_scenario.node[3].veinsmobility  speed  ETV
vector 28  warning_scenario.node[3].veinsmobility  acceleration  ETV
vector 29  warning_scenario.node[3].veinsmobility  co2emission  ETV
vector 32  warning_scenario.node[4].veinsmobility  posx  ETV
vector 33  warning_scenario.node[4].veinsmobility  posy  ETV
vector 34  warning_scenario.node[4].veinsmobility  speed  ETV
vector 35  warning_scenario.node[4].veinsmobility  acceleration  ETV
vector 36  warning_scenario.node[4].veinsmobility  co2emission  ETV
vector 39  warning_scenario.node[5].veinsmobility  posx  ETV
vector 40  warning_scenario.node[5].veinsmobility  posy  ETV
vector 41  warning_scenario.node[5].veinsmobility  speed  ETV
vector 42  warning_scenario.node[5].veinsmobility  acceleration  ETV
vector 43  warning_scenario.node[5].veinsmobility  co2emission  ETV
vector 46  warning_scenario.node[6].veinsmobility  posx  ETV
vector 47  warning_scenario.node[6].veinsmobility  posy  ETV
vector 48  warning_scenario.node[6].veinsmobility  speed  ETV
vector 49  warning_scenario.node[6].veinsmobility  acceleration  ETV
vector 50  warning_scenario.node[6].veinsmobility  co2emission  ETV
vector 53  warning_scenario.node[7].veinsmobility  posx  ETV
vector 54  warning_scenario.node[7].veinsmobility  posy  ETV
vector 55  warning_scenario.node[7].veinsmobility  speed  ETV
vector 56  warning_scenario.node[7].veinsmobility  acceleration  ETV
vector 57  warning_scenario.node[7].veinsmobility  co2emission  ETV
vector 60  warning_scenario.node[8].veinsmobility  posx  ETV
vector 61  warning_scenario.node[8].veinsmobility  posy  ETV
vector 62  warning_scenario.node[8].veinsmobility  speed  ETV
vector 63  warning_scenario.node[8].veinsmobility  acceleration  ETV
vector 64  warning_scenario.node[8].veinsmobility  co2emission  ETV
vector 67  warning_scenario.node[9].veinsmobility  posx  ETV
vector 68  warning_scenario.node[9].veinsmobility  posy  ETV
vector 69  warning_scenario.node[9].veinsmobility  speed  ETV
vector 70  warning_scenario.node[9].veinsmobility  acceleration  ETV
vector 71  warning_scenario.node[9].veinsmobility  co2emission  ETV
vector 74  warning_scenario.node[10].veinsmobility  posx  ETV
vector 75  warning_scenario.node[10].veinsmobility  posy  ETV
vector 76  warning_scenario.node[10].veinsmobility  speed  ETV
vector 77  warning_scenario.node[10].veinsmobility  acceleration  ETV
vector 78  warning_scenario.node[10].veinsmobility  co2emission  ETV
vector 81  warning_scenario.node[11].veinsmobility  posx  ETV
vector 82  warning_scenario.node[11].veinsmobility  posy  ETV
vector 83  warning_scenario.node[11].veinsmobility  speed  ETV
vector 84  warning_scenario.node[11].veinsmobility  acceleration  ETV
vector 85  warning_scenario.node[11].veinsmobility  co2emission  ETV
vector 88  warning_scenario.node[12].veinsmobility  posx  ETV
vector 89  warning_scenario.node[12].veinsmobility  posy  ETV
vector 90  warning_scenario.node[12].veinsmobility  speed  ETV
vector 91  warning_scenario.node[12].veinsmobility  acceleration  ETV
vector 92  warning_scenario.node[12].veinsmobility  co2emission  ETV
vector 95  warning_scenario.node[13].veinsmobility  posx  ETV
vector 96  warning_scenario.node[13].veinsmobility  posy  ETV
vector 97  warning_scenario.node[13].veinsmobility  speed  ETV
vector 98  warning_scenario.node[13].veinsmobility  acceleration  ETV
vector 99  warning_scenario.node[13].veinsmobility  co2emission  ETV
vector 102  warning_scenario.node[14].veinsmobility  posx  ETV
vector 103  warning_scenario.node[14].veinsmobility  posy  ETV
vector 104  warning_scenario.node[14].veinsmobility  speed  ETV
vector 105  warning_scenario.node[14].veinsmobility  acceleration  ETV
vector 106  warning_scenario.node[14].veinsmobility  co2emission  ETV
vector 109  warning_scenario.node[15].veinsmobility  posx  ETV
vector 110  warning_scenario.node[15].veinsmobility  posy  ETV
vector 111  warning_scenario.node[15].veinsmobility  speed  ETV
vector 112  warning_scenario.node[15].veinsmobility  acceleration  ETV
vector 113  warning_scenario.node[15].veinsmobility  co2emission  ETV
vector 116  warning_scenario.node[16].veinsmobility  posx  ETV
vector 117  warning_scenario.node[16].veinsmobility  posy  ETV
vector 118  warning_scenario.node[16].veinsmobility  speed  ETV
vector 119  warning_scenario.node[16].veinsmobility  acceleration  ETV
vector 120  warning_scenario.node[16].veinsmobility  co2emission  ETV
vector 123  warning_scenario.node[17].veinsmobility  posx  ETV
vector 124  warning_scenario.node[17].veinsmobility  posy  ETV
vector 125  warning_scenario.node[17].veinsmobility  speed  ETV
vector 126  warning_scenario.node[17].veinsmobility  acceleration  ETV
vector 127  warning_scenario.node[17].veinsmobility  co2emission  ETV
vector 130  warning_scenario.node[18].veinsmobility  posx  ETV
vector 131  warning_scenario.node[18].veinsmobility  posy  ETV
vector 132  warning_scenario.node[18].veinsmobility  speed  ETV
vector 133  warning_scenario.node[18].veinsmobility  acceleration  ETV
vector 134  warning_scenario.node[18].veinsmobility  co2emission  ETV
vector 137  warning_scenario.node[19].veinsmobility  posx  ETV
vector 138  warning_scenario.node[19].veinsmobility  posy  ETV
vector 139  warning_scenario.node[19].veinsmobility  speed  ETV
vector 140  warning_scenario.node[19].veinsmobility  acceleration  ETV
vector 141  warning_scenario.node[19].veinsmobility  co2emission  ETV
vector 144  warning_scenario.node[20].veinsmobility  posx  ETV
vector 145  warning_scenario.node[20].veinsmobility  posy  ETV
vector 146  warning_scenario.node[20].veinsmobility  speed  ETV
vector 147  warning_scenario.node[20].veinsmobility  acceleration  ETV
vector 148  warning_scenario.node[20].veinsmobility  co2emission  ETV
vector 151  warning_scenario.node[21].veinsmobility  posx  ETV
vector 152  warning_scenario.node[21].veinsmobility  posy  ETV
vector 153  warning_scenario.node[21].veinsmobility  speed  ETV
vector 154  warning_scenario.node[21].veinsmobility  acceleration  ETV
vector 155  warning_scenario.node[21].veinsmobility  co2emission  ETV
vector 158  warning_scenario.node[22].veinsmobility  posx  ETV
vector 159  warning_scenario.node[22].veinsmobility  posy  ETV
vector 160  warning_scenario.node[22].veinsmobility  speed  ETV
vector 161  warning_scenario.node[22].veinsmobility  acceleration  ETV
vector 162  warning_scenario.node[22].veinsmobility  co2emission  ETV
vector 165  warning_scenario.node[23].veinsmobility  posx  ETV
vector 166  warning_scenario.node[23].veinsmobility  posy  ETV
vector 167  warning_scenario.node[23].veinsmobility  speed  ETV
vector 168  warning_scenario.node[23].veinsmobility  acceleration  ETV
vector 169  warning_scenario.node[23].veinsmobility  co2emission  ETV
vector 172  warning_scenario.node[24].veinsmobility  posx  ETV
vector 173  warning_scenario.node[24].veinsmobility  posy  ETV
vector 174  warning_scenario.node[24].veinsmobility  speed  ETV
vector 175  warning_scenario.node[24].veinsmobility  acceleration  ETV
vector 176  warning_scenario.node[24].veinsmobility  co2emission  ETV
vector 179  warning_scenario.node[25].veinsmobility  posx  ETV
vector 180  warning_scenario.node[25].veinsmobility  posy  ETV
vector 181  warning_scenario.node[25].veinsmobility  speed  ETV
vector 182  warning_scenario.node[25].veinsmobility  acceleration  ETV
vector 183  warning_scenario.node[25].veinsmobility  co2emission  ETV
vector 186  warning_scenario.node[26].veinsmobility  posx  ETV
vector 187  warning_scenario.node[26].veinsmobility  posy  ETV
vector 188  warning_scenario.node[26].veinsmobility  speed  ETV
vector 189  warning_scenario.node[26].veinsmobility  acceleration  ETV
vector 190  warning_scenario.node[26].veinsmobility  co2emission  ETV
vector 193  warning_scenario.node[27].veinsmobility  posx  ETV
vector 194  warning_scenario.node[27].veinsmobility  posy  ETV
vector 195  warning_scenario.node[27].veinsmobility  speed  ETV
vector 196  warning_scenario.node[27].veinsmobility  acceleration  ETV
vector 197  warning_scenario.node[27].veinsmobility  co2emission  ETV
vector 200  warning_scenario.node[28].veinsmobility  posx  ETV
vector 201  warning_scenario.node[28].veinsmobility  posy  ETV
vector 202  warning_scenario.node[28].veinsmobility  speed  ETV
vector 203  warning_scenario.node[28].veinsmobility  acceleration  ETV
vector 204  warning_scenario.node[28].veinsmobility  co2emission  ETV
vector 207  warning_scenario.node[29].veinsmobility  posx  ETV
vector 208  warning_scenario.node[29].veinsmobility  posy  ETV
vector 209  warning_scenario.node[29].veinsmobility  speed  ETV
vector 210  warning_scenario.node[29].veinsmobility  acceleration  ETV
vector 211  warning_scenario.node[29].veinsmobility  co2emission  ETV
vector 214  warning_scenario.node[30].veinsmobility  posx  ETV
vector 215  warning_scenario.node[30].veinsmobility  posy  ETV
vector 216  warning_scenario.node[30].veinsmobility  speed  ETV
vector 217  warning_scenario.node[30].veinsmobility  acceleration  ETV
vector 218  warning_scenario.node[30].veinsmobility  co2emission  ETV
vector 221  warning_scenario.node[31].veinsmobility  posx  ETV
vector 222  warning_scenario.node[31].veinsmobility  posy  ETV
vector 223  warning_scenario.node[31].veinsmobility  speed  ETV
vector 224  warning_scenario.node[31].veinsmobility  acceleration  ETV
vector 225  warning_scenario.node[31].veinsmobility  co2emission  ETV
vector 228  warning_scenario.node[32].veinsmobility  posx  ETV
vector 229  warning_scenario.node[32].veinsmobility  posy  ETV
vector 230  warning_scenario.node[32].veinsmobility  speed  ETV
vector 231  warning_scenario.node[32].veinsmobility  acceleration  ETV
vector 232  warning_scenario.node[32].veinsmobility  co2emission  ETV
vector 235  warning_scenario.node[33].veinsmobility  posx  ETV
vector 236  warning_scenario.node[33].veinsmobility  posy  ETV
vector 237  warning_scenario.node[33].veinsmobility  speed  ETV
vector 238  warning_scenario.node[33].veinsmobility  acceleration  ETV
vector 239  warning_scenario.node[33].veinsmobility  co2emission  ETV
vector 242  warning_scenario.node[34].veinsmobility  posx  ETV
vector 243  warning_scenario.node[34].veinsmobility  posy  ETV
vector 244  warning_scenario.node[34].veinsmobility  speed  ETV
vector 245  warning_scenario.node[34].veinsmobility  acceleration  ETV
vector 246  warning_scenario.node[34].veinsmobility  co2emission  ETV
vector 249  warning_scenario.node[35].veinsmobility  posx  ETV
vector 250  warning_scenario.node[35].veinsmobility  posy  ETV
vector 251  warning_scenario.node[35].veinsmobility  speed  ETV
vector 252  warning_scenario.node[35].veinsmobility  acceleration  ETV
vector 253  warning_scenario.node[35].veinsmobility  co2emission  ETV
vector 256  warning_scenario.node[36].veinsmobility  posx  ETV
vector 257  warning_scenario.node[36].veinsmobility  posy  ETV
vector 258  warning_scenario.node[36].veinsmobility  speed  ETV
vector 259  warning_scenario.node[36].veinsmobility  acceleration  ETV
vector 260  warning_scenario.node[36].veinsmobility  co2emission  ETV
vector 263  warning_scenario.node[37].veinsmobility  posx  ETV
vector 264  warning_scenario.node[37].veinsmobility  posy  ETV
vector 265  warning_scenario.node[37].veinsmobility  speed  ETV
vector 266  warning_scenario.node[37].veinsmobility  acceleration  ETV
vector 267  warning_scenario.node[37].veinsmobility  co2emission  ETV
vector 270  warning_scenario.node[38].veinsmobility  posx  ETV
vector 271  warning_scenario.node[38].veinsmobility  posy  ETV
vector 272  warning_scenario.node[38].veinsmobility  speed  ETV
vector 273  warning_scenario.node[38].veinsmobility  acceleration  ETV
vector 274  warning_scenario.node[38].veinsmobility  co2emission  ETV
vector 277  warning_scenario.node[39].veinsmobility  posx  ETV
vector 278  warning_scenario.node[39].veinsmobility  posy  ETV
vector 279  warning_scenario.node[39].veinsmobility  speed  ETV
vector 280  warning_scenario.node[39].veinsmobility  acceleration  ETV
vector 281  warning_scenario.node[39].veinsmobility  co2emission  ETV
vector 284  warning_scenario.node[40].veinsmobility  posx  ETV
vector 285  warning_scenario.node[40].veinsmobility  posy  ETV
vector 286  warning_scenario.node[40].veinsmobility  speed  ETV
vector 287  warning_scenario.node[40].veinsmobility  acceleration  ETV
vector 288  warning_scenario.node[40].veinsmobility  co2emission  ETV
vector 291  warning_scenario.node[41].veinsmobility  posx  ETV
vector 292  warning_scenario.node[41].veinsmobility  posy  ETV
vector 293  warning_scenario.node[41].veinsmobility  speed  ETV
vector 294  warning_scenario.node[41].veinsmobility  acceleration  ETV
vector 295  warning_scenario.node[41].veinsmobility  co2emission  ETV
vector 298  warning_scenario.node[42].veinsmobility  posx  ETV
vector 299  warning_scenario.node[42].veinsmobility  posy  ETV
vector 300  warning_scenario.node[42].veinsmobility  speed  ETV
vector 301  warning_scenario.node[42].veinsmobility  acceleration  ETV
vector 302  warning_scenario.node[42].veinsmobility  co2emission  ETV
vector 305  warning_scenario.node[43].veinsmobility  posx  ETV
vector 306  warning_scenario.node[43].veinsmobility  posy  ETV
vector 307  warning_scenario.node[43].veinsmobility  speed  ETV
vector 308  warning_scenario.node[43].veinsmobility  acceleration  ETV
vector 309  warning_scenario.node[43].veinsmobility  co2emission  ETV
vector 312  warning_scenario.node[44].veinsmobility  posx  ETV
vector 313  warning_scenario.node[44].veinsmobility  posy  ETV
vector 314  warning_scenario.node[44].veinsmobility  speed  ETV
vector 315  warning_scenario.node[44].veinsmobility  acceleration  ETV
vector 316  warning_scenario.node[44].veinsmobility  co2emission  ETV
vector 319  warning_scenario.node[45].veinsmobility  posx  ETV
vector 320  warning_scenario.node[45].veinsmobility  posy  ETV
vector 321  warning_scenario.node[45].veinsmobility  speed  ETV
vector 322  warning_scenario.node[45].veinsmobility  acceleration  ETV
vector 323  warning_scenario.node[45].veinsmobility  co2emission  ETV
vector 326  warning_scenario.node[46].veinsmobility  posx  ETV
vector 327  warning_scenario.node[46].veinsmobility  posy  ETV
vector 328  warning_scenario.node[46].veinsmobility  speed  ETV
vector 329  warning_scenario.node[46].veinsmobility  acceleration  ETV
vector 330  warning_scenario.node[46].veinsmobility  co2emission  ETV
vector 333  warning_scenario.node[47].veinsmobility  posx  ETV
vector 334  warning_scenario.node[47].veinsmobility  posy  ETV
vector 335  warning_scenario.node[47].veinsmobility  speed  ETV
vector 336  warning_scenario.node[47].veinsmobility  acceleration  ETV
vector 337  warning_scenario.node[47].veinsmobility  co2emission  ETV
vector 340  warning_scenario.node[48].veinsmobility  posx  ETV
vector 341  warning_scenario.node[48].veinsmobility  posy  ETV
vector 342  warning_scenario.node[48].veinsmobility  speed  ETV
vector 343  warning_scenario.node[48].veinsmobility  acceleration  ETV
vector 344  warning_scenario.node[48].veinsmobility  co2emission  ETV
vector 347  warning_scenario.node[49].veinsmobility  posx  ETV
vector 348  warning_scenario.node[49].veinsmobility  posy  ETV
vector 349  warning_scenario.node[49].veinsmobility  speed  ETV
vector 350  warning_scenario.node[49].veinsmobility  acceleration  ETV
vector 351  warning_scenario.node[49].veinsmobility  co2emission  ETV
vector 354  warning_scenario.node[50].veinsmobility  posx  ETV
vector 355  warning_scenario.node[50].veinsmobility  posy  ETV
vector 356  warning_scenario.node[50].veinsmobility  speed  ETV
vector 357  warning_scenario.node[50].veinsmobility  acceleration  ETV
vector 358  warning_scenario.node[50].veinsmobility  co2emission  ETV
vector 361  warning_scenario.node[51].veinsmobility  posx  ETV
vector 362  warning_scenario.node[51].veinsmobility  posy  ETV
vector 363  warning_scenario.node[51].veinsmobility  speed  ETV
vector 364  warning_scenario.node[51].veinsmobility  acceleration  ETV
vector 365  warning_scenario.node[51].veinsmobility  co2emission  ETV
vector 368  warning_scenario.node[52].veinsmobility  posx  ETV
vector 369  warning_scenario.node[52].veinsmobility  posy  ETV
vector 370  warning_scenario.node[52].veinsmobility  speed  ETV
vector 371  warning_scenario.node[52].veinsmobility  acceleration  ETV
vector 372  warning_scenario.node[52].veinsmobility  co2emission  ETV
vector 375  warning_scenario.node[53].veinsmobility  posx  ETV
vector 376  warning_scenario.node[53].veinsmobility  posy  ETV
vector 377  warning_scenario.node[53].veinsmobility  speed  ETV
vector 378  warning_scenario.node[53].veinsmobility  acceleration  ETV
vector 379  warning_scenario.node[53].veinsmobility  co2emission  ETV
vector 382  warning_scenario.node[54].veinsmobility  posx  ETV
vector 383  warning_scenario.node[54].veinsmobility  posy  ETV
vector 384  warning_scenario.node[54].veinsmobility  speed  ETV
vector 385  warning_scenario.node[54].veinsmobility  acceleration  ETV
vector 386  warning_scenario.node[54].veinsmobility  co2emission  ETV
vector 389  warning_scenario.node[55].veinsmobility  posx  ETV
vector 390  warning_scenario.node[55].veinsmobility  posy  ETV
vector 391  warning_scenario.node[55].veinsmobility  speed  ETV
vector 392  warning_scenario.node[55].veinsmobility  acceleration  ETV
vector 393  warning_scenario.node[55].veinsmobility  co2emission  ETV
vector 396  warning_scenario.node[56].veinsmobility  posx  ETV
vector 397  warning_scenario.node[56].veinsmobility  posy  ETV
vector 398  warning_scenario.node[56].veinsmobility  speed  ETV
vector 399  warning_scenario.node[56].veinsmobility  acceleration  ETV
vector 400  warning_scenario.node[56].veinsmobility  co2emission  ETV
vector 403  warning_scenario.node[57].veinsmobility  posx  ETV
vector 404  warning_scenario.node[57].veinsmobility  posy  ETV
vector 405  warning_scenario.node[57].veinsmobility  speed  ETV
vector 406  warning_scenario.node[57].veinsmobility  acceleration  ETV
vector 407  warning_scenario.node[57].veinsmobility  co2emission  ETV
vector 410  warning_scenario.node[58].veinsmobility  posx  ETV
vector 411  warning_scenario.node[58].veinsmobility  posy  ETV
vector 412  warning_scenario.node[58].veinsmobility  speed  ETV
vector 413  warning_scenario.node[58].veinsmobility  acceleration  ETV
vector 414  warning_scenario.node[58].veinsmobility  co2emission  ETV
vector 417  warning_scenario.node[59].veinsmobility  posx  ETV
vector 418  warning_scenario.node[59].veinsmobility  posy  ETV
vector 419  warning_scenario.node[59].veinsmobility  speed  ETV
vector 420  warning_scenario.node[59].veinsmobility  acceleration  ETV
vector 421  warning_scenario.node[59].veinsmobility  co2emission  ETV
vector 424  warning_scenario.node[60].veinsmobility  posx  ETV
vector 425  warning_scenario.node[60].veinsmobility  posy  ETV
vector 426  warning_scenario.node[60].veinsmobility  speed  ETV
vector 427  warning_scenario.node[60].veinsmobility  acceleration  ETV
vector 428  warning_scenario.node[60].veinsmobility  co2emission  ETV
vector 431  warning_scenario.node[61].veinsmobility  posx  ETV
vector 432  warning_scenario.node[61].veinsmobility  posy  ETV
vector 433  warning_scenario.node[61].veinsmobility  speed  ETV
vector 434  warning_scenario.node[61].veinsmobility  acceleration  ETV
vector 435  warning_scenario.node[61].veinsmobility  co2emission  ETV
vector 438  warning_scenario.node[62].veinsmobility  posx  ETV
vector 439  warning_scenario.node[62].veinsmobility  posy  ETV
vector 440  warning_scenario.node[62].veinsmobility  speed  ETV
vector 441  warning_scenario.node[62].veinsmobility  acceleration  ETV
vector 442  warning_scenario.node[62].veinsmobility  co2emission  ETV
vector 445  warning_scenario.node[63].veinsmobility  posx  ETV
vector 446  warning_scenario.node[63].veinsmobility  posy  ETV
vector 447  warning_scenario.node[63].veinsmobility  speed  ETV
vector 448  warning_scenario.node[63].veinsmobility  acceleration  ETV
vector 449  warning_scenario.node[63].veinsmobility  co2emission  ETV
vector 452  warning_scenario.node[64].veinsmobility  posx  ETV
vector 453  warning_scenario.node[64].veinsmobility  posy  ETV
vector 454  warning_scenario.node[64].veinsmobility  speed  ETV
vector 455  warning_scenario.node[64].veinsmobility  acceleration  ETV
vector 456  warning_scenario.node[64].veinsmobility  co2emission  ETV
8	34	3	3.9690439751639
8	50	4	4.8734986088453
8	93	5	6.2068327255978
8	136	6	7.2118621755177
8	179	7	8.2287933875323
8	261	8	3.0242689444712
8	343	9	2.410214010884
8	425	10	1.8042481683123
8	556	11	2.2766031729043
8	689	12	1.9910577970912
8	822	13	1.9816353748441
8	1018	14	2.0006543718409
8	1214	15	2.0156733927738
8	1410	16	1.7275773004983
8	1681	17	2.3491339177603
8	1952	18	0.973
8	2222	19	0.973
8	2579	20	0.973
8	2937	21	0.973
8	3294	22	2.9202656039732
8	3750	23	5.1829022112917
8	4207	24	5.8409555110412
8	4662	25	7.0478875101329
8	5230	26	7.1923395024802
8	5796	27	5.7035699225295
8	6362	28	1.8542576609033
8	7050	29	2.071579633465
8	7741	30	2.033070591514
8	8429	31	1.9708367886165
8	9251	32	1.958947003716
8	10075	33	2.1937519865362
8	10898	34	2.0148851452489
8	11866	35	1.9494556216079
8	12835	36	2.1233313202265
8	13804	37	2.0980065652139
8	14929	38	2.0564960049267
8	16057	39	1.8849385975403
8	17183	40	2.0135217775437
8	18481	41	2.1970455854856
8	19781	42	2.0114927076469
8	21076	43	1.8022364453996
8	22554	44	2.4028055099799
8	24036	45	1.7398103572212
8	25516	46	2.0704874226364
8	27187	47	1.9551479348163
8	28861	48	2.0622988460067
8	30532	49	2.1436920788903
8	32411	50	1.9709420801269
8	34290	51	2.2404713242546
8	36169	52	1.6811177558643
8	38268	53	2.1687186093148
8	40368	54	2.068228125812
8	42465	55	2.1189750795911
8	44795	56	1.9158044765909
8	47122	57	2.0646522515523
8	49450	58	1.8795950099662
8	52019	59	2.40991582857
8	54587	60	2.060217812421
8	57158	61	1.6101508281289
8	59984	62	2.0174438220444
8	62808	63	2.2227433300183
8	65627	64	2.1956409213675
8	68718	65	1.7698327313004
8	71807	66	1.9334542286895
8	74898	67	2.2331933794582
8	78263	68	1.8269584545957
8	81630	69	2.4094828911751
8	84999	70	1.8423934072781
8	88655	71	2.1030929112895
8	92314	72	1.9463691603324
8	95971	73	0.973
8	99933	74	0.973
8	103893	75	0.973
8	107854	76	0.973
8	112130	77	3.6588822877698
8	116406	78	5.0865599412594
8	120682	79	5.9385962950044
8	125287	80	7.3709825788181
8	129891	81	8.0810194052047
8	134494	82	4.2831429001809
8	139438	83	2.1381626787569
8	144381	84	2.1264048196174
8	149324	85	1.8855572138525
8	154617	86	1.9443647681065
8	159912	87	1.8600811820387
8	165207	88	2.3323577292793
8	170866	89	1.7601869136304
8	176524	90	2.2623294897638
8	182178	91	1.9706018454816
8	188212	92	1.9995155483591
8	194245	93	2.2317342997687
8	200276	94	1.8315725086565
8	206697	95	2.2440368818888
8	213114	96	1.8172721695326
8	219533	97	1.9140313611804
8	226353	98	2.3263236098912
8	233170	99	1.9259935870923
8	239989	100	2.1544142698271
8	247219	101	2.0796082567351
8	254450	102	1.6967455958064
8	261679	103	2.1959979960754
8	269330	104	2.1363448101157
8	276982	105	1.9700779177575
8	284633	106	1.8314212939357
8	292720	107	1.9968852528928
8	300808	108	2.2343128921263
8	308894	109	1.8487609936436
8	317430	110	2.0076708878496
8	325967	111	2.1244243913193
8	334499	112	2.1718698001351
8	343495	113	1.8851106634779
8	352488	114	1.944362283802
8	361481	115	2.336783514802
8	370945	116	2.0868255401842
8	380408	117	1.9225622500863
8	389872	118	2.1690756234539
8	399818	119	1.8683884879652
8	409762	120	2.1088486827648
8	419709	121	1.7825831943796
8	430149	122	2.2412922360332
8	440590	123	1.8338844329385
8	451031	124	2.117922907444
8	461979	125	2.2185370317635
8	472926	126	1.9691383627978
8	483875	127	1.945245235114
8	495348	128	1.9744524677002
8	506815	129	2.1905183611555
8	518283	130	1.869506649165
8	530280	131	1.9525582739944
8	542280	132	2.3673853427263
8	554278	133	1.8736469224468
8	566819	134	2.0890641969687
8	579364	135	1.7847118530456
8	591908	136	2.424471041835
8	605002	137	1.6026273215021
8	618096	138	2.1844508262857
8	631193	139	2.1329165940934
8	644854	140	1.9202811456913
8	658516	141	2.2570252135652
8	672180	142	1.7092124494953
8	686421	143	2.2001887307963
8	700664	144	2.066390382259
8	714904	145	2.2144000026955
8	729733	146	2.0238570991803
8	744567	147	1.6169631889517
8	759390	148	2.3109593499213
8	774819	149	1.7893718415076
8	790243	150	2.2787983736996
8	805667	151	1.8406567093162
8	821695	152	2.2344425784029
8	837728	153	1.9315664771292
8	853753	154	2.0584510291845
8	870396	155	2.204937581719
8	887031	156	2.0480213820743
8	903663	157	2.0028558603956
8	921231	158	1.7209579306654
8	938792	159	2.065682486024
8	956341	160	2.0564850881238
8	974540	161	2.3427884345424
8	993049	162	1.7652576777547
8	1011218	163	2.0607200416596
8	1030056	164	2.0922108605358
8	1049195	165	1.8146264821598
8	1067999	166	2.3853745370973
8	1087462	167	1.8825053447046
8	1107236	168	2.1727974673451
8	1126681	169	2.018013845
8	1146791	170	1.8588869762153
8	1167209	171	2.111090074026
8	1187288	172	2.1904610719439
8	1208047	173	1.9758635315103
8	1229135	174	1.7529215086448
8	1249859	175	2.3598289173678
8	1271281	176	1.8773442648004
8	1293026	177	2.0440490366262
8	1314755	178	1.9605593746783
8	1336844	179	2.1387911887426
8	1358919	180	1.9336821561786
8	1381337	181	2.0004246019993
8	1404115	182	2.0586194280271
8	1427212	183	1.9985421892298
8	1450304	184	2.0959409550062
8	1473762	185	2.1019142852643
8	1497568	186	1.9542747864263
8	1521356	187	2.0184355633088
8	1545520	188	2.130793452616
8	1570024	189	2.1666651430745
8	1594518	190	1.9518821553614
8	1619389	191	1.9847919004609
8	1644619	192	2.0692579997587
8	1669449	193	1.9793303151862
8	1695049	194	1.7748528783084
8	1721009	195	2.0182533099654
7	34	3	1.8350836683181
7	50	4	1.8271086537745
7	93	5	1.9700068054721
7	136	6	1.9440954117314
7	179	7	1.9251633647294
7	261	8	0.3043542271355
7	343	9	0.11476667602547
7	425	10	-0.064753184660804
7	556	11	0.074470334358047
7	689	12	-0.010534379172604
7	822	13	-0.012970053050667
7	1018	14	-0.0070667944545857
7	1214	15	-0.0024941215664143
7	1410	16	-0.086695689375047
7	1681	17	0.096991665165405
7	1952	18	-1.1627897896615
7	2222	19	-3.2370594858455
7	2579	20	-2.9603488400973
7	2937	21	-2.5337033977468
7	3294	22	1.2329252061435
7	3750	23	2.094907346114
7	4207	24	1.9011793446587
7	4662	25	1.9599004447064
7	5230	26	1.6991365455417
7	5796	27	1.0915354850417
7	6362	28	-0.052010718395469
7	7050	29	0.01248028835049
7	7741	30	0.00096433614380587
7	8429	31	-0.017099415783305
7	9251	32	-0.020069704249035
7	10075	33	0.048505362290889
7	10898	34	-0.0046603607200097
7	11866	35	-0.023492567082867
7	12835	36	0.027538535709027
7	13804	37	0.01937479801709
7	14929	38	0.0068101624515826
7	16057	39	-0.043050197220873
7	17183	40	-0.0045451738196416
7	18481	41	0.048586284592748
7	19781	42	-0.0064147925446747
7	21076	43	-0.06697850137949
7	22554	44	0.10845056370599
7	24036	45	-0.086184235455002
7	25516	46	0.012157847334166
7	27187	47	-0.02162330031395
7	28861	48	0.01007445028983
7	30532	49	0.033280818574131
7	32411	50	-0.017653799874243
7	34290	51	0.060609251707794
7	36169	52	-0.10310439425055
7	38268	53	0.04136053440161
7	40368	54	0.011047466655729
7	42465	55	0.025352031746879
7	44795	56	-0.034127474795095
7	47122	57	0.0099455157318147
7	49450	58	-0.043998417782131
7	52019	59	0.11027641468448
7	54587	60	0.0063770599314008
7	57158	61	-0.12437126584118
7	59984	62	-0.002486674915998
7	62808	63	0.056955466950312
7	65627	64	0.047281749872491
7	68718	65	-0.077224377754611
7	71807	66	-0.027593536539934
7	74898	67	0.059983630857896
7	78263	68	-0.05946393133374
7	81630	69	0.11053127134917
7	84999	70	-0.056278499371837
7	88655	71	0.020738100388552
7	92314	72	-0.02517115517985
7	95971	73	-1.6366440532162
7	99933	74	-3.2727100428296
7	103893	75	-2.8991261011466
7	107854	76	-2.4877043168963
7	112130	77	1.7546157900471
7	116406	78	2.0113021048019
7	120682	79	1.9186880332208
7	125287	80	2.0394927609805
7	129891	81	1.9133554690727
7	134494	82	0.67040014011435
7	139438	83	0.030614012682344
7	144381	84	0.026271461674479
7	149324	85	-0.043966700597666
7	154617	86	-0.025735835046508
7	159912	87	-0.049532995871269
7	165207	88	0.088484146317933
7	170866	89	-0.07963396925712
7	176524	90	0.068075859348756
7	182178	91	-0.018183020192664
7	188212	92	-0.0092939967173162
7	194245	93	0.057921255321707
7	200276	94	-0.059318258550483
7	206697	95	0.061497409208679
7	213114	96	-0.063528902956751
7	219533	97	-0.033737572405952
7	226353	98	0.086320287589915
7	233170	99	-0.03170052127447
7	239989	100	0.035144216199406
7	247219	101	0.012537362598813
7	254450	102	-0.098762252677698
7	261679	103	0.048760694647209