version 2
run nodebug-0-20160908-17:04:12-29242
attr configname nodebug
attr datetime 20160908-17:04:12
attr experiment nodebug
attr inifile omnetpp.ini
attr iterationvars ""
attr iterationvars2 $repetition=0
attr measurement ""
attr network warning_scenario
attr processid 29242
attr repetition 0
attr replication #0
attr resultdir results
attr runnumber 0
attr seedset 0

vector 4  warning_scenario.node[0].veinsmobility  posx  ETV
vector 5  warning_scenario.node[0].veinsmobility  posy  ETV
vector 6  warning_scenario.node[0].veinsmobility  speed  ETV
vector 7  warning_scenario.node[0].veinsmobility  acceleration  ETV
vector 8  warning_scenario.node[0].veinsmobility  co2emission  ETV
vector 11  warning_scenario.node[1].veinsmobility  posx  ETV
vector 12  warning_scenario.node[1].veinsmobility  posy  ETV
vector 13  warning_scenario.node[1].veinsmobility  speed  ETV
vector 14  warning_scenario.node[1].veinsmobility  acceleration  ETV
vector 15  warning_scenario.node[1].veinsmobility  co2emission  ETV
vector 18  warning_scenario.node[2].veinsmobility  posx  ETV
vector 19  warning_scenario.node[2].veinsmobility  posy  ETV
vector 20  warning_scenario.node[2].veinsmobility  speed  ETV
vector 21  warning_scenario.node[2].veinsmobility  acceleration  ETV
vector 22  warning_scenario.node[2].veinsmobility  co2emission  ETV
vector 25  warning_scenario.node[3].veinsmobility  posx  ETV
vector 26  warning_scenario.node[3].veinsmobility  posy  ETV
vector 27  warning_scenario.node[3].veinsmobility  speed  ETV
vector 28  warning_scenario.node[3].veinsmobility  acceleration  ETV
vector 29  warning_scenario.node[3].veinsmobility  co2emission  ETV
vector 32  warning_scenario.node[4].veinsmobility  posx  ETV
vector 33  warning_scenario.node[4].veinsmobility  posy  ETV
vector 34  warning_scenario.node[4].veinsmobility  speed  ETV
vector 35  warning_scenario.node[4].veinsmobility  acceleration  ETV
vector 36  warning_scenario.node[4].veinsmobility  co2emission  ETV
vector 39  warning_scenario.node[5].veinsmobility  posx  ETV
vector 40  warning_scenario.node[5].veinsmobility  posy  ETV
vector 41  warning_scenario.node[5].veinsmobility  speed  ETV
vector 42  warning_scenario.node[5].veinsmobility  acceleration  ETV
vector 43  warning_scenario.node[5].veinsmobility  co2emission  ETV
vector 46  warning_scenario.node[6].veinsmobility  posx  ETV
vector 47  warning_scenario.node[6].veinsmobility  posy  ETV
vector 48  warning_scenario.node[6].veinsmobility  speed  ETV
vector 49  warning_scenario.node[6].veinsmobility  acceleration  ETV
vector 50  warning_scenario.node[6].veinsmobility  co2emission  ETV
vector 53  warning_scenario.node[7].veinsmobility  posx  ETV
vector 54  warning_scenario.node[7].veinsmobility  posy  ETV
vector 55  warning_scenario.node[7].veinsmobility  speed  ETV
vector 56  warning_scenario.node[7].veinsmobility  acceleration  ETV
vector 57  warning_scenario.node[7].veinsmobility  co2emission  ETV
vector 60  warning_scenario.node[8].veinsmobility  posx  ETV
vector 61  warning_scenario.node[8].veinsmobility  posy  ETV
vector 62  warning_scenario.node[8].veinsmobility  speed  ETV
vector 63  warning_scenario.node[8].veinsmobility  acceleration  ETV
vector 64  warning_scenario.node[8].veinsmobility  co2emission  ETV
vector 67  warning_scenario.node[9].veinsmobility  posx  ETV
vector 68  warning_scenario.node[9].veinsmobility  posy  ETV
vector 69  warning_scenario.node[9].veinsmobility  speed  ETV
vector 70  warning_scenario.node[9].veinsmobility  acceleration  ETV
vector 71  warning_scenario.node[9].veinsmobility  co2emission  ETV
vector 74  warning_scenario.node[10].veinsmobility  posx  ETV
vector 75  warning_scenario.node[10].veinsmobility  posy  ETV
vector 76  warning_scenario.node[10].veinsmobility  speed  ETV
vector 77  warning_scenario.node[10].veinsmobility  acceleration  ETV
vector 78  warning_scenario.node[10].veinsmobility  co2emission  ETV
vector 81  warning_scenario.node[11].veinsmobility  posx  ETV
vector 82  warning_scenario.node[11].veinsmobility  posy  ETV
vector 83  warning_scenario.node[11].veinsmobility  speed  ETV
vector 84  warning_scenario.node[11].veinsmobility  acceleration  ETV
vector 85  warning_scenario.node[11].veinsmobility  co2emission  ETV
vector 88  warning_scenario.node[12].veinsmobility  posx  ETV
vector 89  warning_scenario.node[12].veinsmobility  posy  ETV
vector 90  warning_scenario.node[12].veinsmobility  speed  ETV
vector 91  warning_scenario.node[12].veinsmobility  acceleration  ETV
vector 92  warning_scenario.node[12].veinsmobility  co2emission  ETV
vector 95  warning_scenario.node[13].veinsmobility  posx  ETV
vector 96  warning_scenario.node[13].veinsmobility  posy  ETV
vector 97  warning_scenario.node[13].veinsmobility  speed  ETV
vector 98  warning_scenario.node[13].veinsmobility  acceleration  ETV
vector 99  warning_scenario.node[13].veinsmobility  co2emission  ETV
vector 102  warning_scenario.node[14].veinsmobility  posx  ETV
vector 103  warning_scenario.node[14].veinsmobility  posy  ETV
vector 104  warning_scenario.node[14].veinsmobility  speed  ETV
vector 105  warning_scenario.node[14].veinsmobility  acceleration  ETV
vector 106  warning_scenario.node[14].veinsmobility  co2emission  ETV
vector 109  warning_scenario.node[15].veinsmobility  posx  ETV
vector 110  warning_scenario.node[15].veinsmobility  posy  ETV
vector 111  warning_scenario.node[15].veinsmobility  speed  ETV
vector 112  warning_scenario.node[15].veinsmobility  acceleration  ETV
vector 113  warning_scenario.node[15].veinsmobility  co2emission  ETV
vector 116  warning_scenario.node[16].veinsmobility  posx  ETV
vector 117  warning_scenario.node[16].veinsmobility  posy  ETV
vector 118  warning_scenario.node[16].veinsmobility  speed  ETV
vector 119  warning_scenario.node[16].veinsmobility  acceleration  ETV
vector 120  warning_scenario.node[16].veinsmobility  co2emission  ETV
vector 123  warning_scenario.node[17].veinsmobility  posx  ETV
vector 124  warning_scenario.node[17].veinsmobility  posy  ETV
vector 125  warning_scenario.node[17].veinsmobility  speed  ETV
vector 126  warning_scenario.node[17].veinsmobility  acceleration  ETV
vector 127  warning_scenario.node[17].veinsmobility  co2emission  ETV
vector 130  warning_scenario.node[18].veinsmobility  posx  ETV
vector 131  warning_scenario.node[18].veinsmobility  posy  ETV
vector 132  warning_scenario.node[18].veinsmobility  speed  ETV
vector 133  warning_scenario.node[18].veinsmobility  acceleration  ETV
vector 134  warning_scenario.node[18].veinsmobility  co2emission  ETV
vector 137  warning_scenario.node[19].veinsmobility  posx  ETV
vector 138  warning_scenario.node[19].veinsmobility  posy  ETV
vector 139  warning_scenario.node[19].veinsmobility  speed  ETV
vector 140  warning_scenario.node[19].veinsmobility  acceleration  ETV
vector 141  warning_scenario.node[19].veinsmobility  co2emission  ETV
vector 144  warning_scenario.node[20].veinsmobility  posx  ETV
vector 145  warning_scenario.node[20].veinsmobility  posy  ETV
vector 146  warning_scenario.node[20].veinsmobility  speed  ETV
vector 147  warning_scenario.node[20].veinsmobility  acceleration  ETV
vector 148  warning_scenario.node[20].veinsmobility  co2emission  ETV
vector 151  warning_scenario.node[21].veinsmobility  posx  ETV
vector 152  warning_scenario.node[21].veinsmobility  posy  ETV
vector 153  warning_scenario.node[21].veinsmobility  speed  ETV
vector 154  warning_scenario.node[21].veinsmobility  acceleration  ETV
vector 155  warning_scenario.node[21].veinsmobility  co2emission  ETV
vector 158  warning_scenario.node[22].veinsmobility  posx  ETV
vector 159  warning_scenario.node[22].veinsmobility  posy  ETV
vector 160  warning_scenario.node[22].veinsmobility  speed  ETV
vector 161  warning_scenario.node[22].veinsmobility  acceleration  ETV
vector 162  warning_scenario.node[22].veinsmobility  co2emission  ETV
vector 165  warning_scenario.node[23].veinsmobility  posx  ETV
vector 166  warning_scenario.node[23].veinsmobility  posy  ETV
vector 167  warning_scenario.node[23].veinsmobility  speed  ETV
vector 168  warning_scenario.node[23].veinsmobility  acceleration  ETV
vector 169  warning_scenario.node[23].veinsmobility  co2emission  ETV
vector 172  warning_scenario.node[24].veinsmobility  posx  ETV
vector 173  warning_scenario.node[24].veinsmobility  posy  ETV
vector 174  warning_scenario.node[24].veinsmobility  speed  ETV
vector 175  warning_scenario.node[24].veinsmobility  acceleration  ETV
vector 176  warning_scenario.node[24].veinsmobility  co2emission  ETV
vector 179  warning_scenario.node[25].veinsmobility  posx  ETV
vector 180  warning_scenario.node[25].veinsmobility  posy  ETV
vector 181  warning_scenario.node[25].veinsmobility  speed  ETV
vector 182  warning_scenario.node[25].veinsmobility  acceleration  ETV
vector 183  warning_scenario.node[25].veinsmobility  co2emission  ETV
vector 186  warning_scenario.node[26].veinsmobility  posx  ETV
vector 187  warning_scenario.node[26].veinsmobility  posy  ETV
vector 188  warning_scenario.node[26].veinsmobility  speed  ETV
vector 189  warning_scenario.node[26].veinsmobility  acceleration  ETV
vector 190  warning_scenario.node[26].veinsmobility  co2emission  ETV
vector 193  warning_scenario.node[27].veinsmobility  posx  ETV
vector 194  warning_scenario.node[27].veinsmobility  posy  ETV
vector 195  warning_scenario.node[27].veinsmobility  speed  ETV
vector 196  warning_scenario.node[27].veinsmobility  acceleration  ETV
vector 197  warning_scenario.node[27].veinsmobility  co2emission  ETV
vector 200  warning_scenario.node[28].veinsmobility  posx  ETV
vector 201  warning_scenario.node[28].veinsmobility  posy  ETV
vector 202  warning_scenario.node[28].veinsmobility  speed  ETV
vector 203  warning_scenario.node[28].veinsmobility  acceleration  ETV
vector 204  warning_scenario.node[28].veinsmobility  co2emission  ETV
vector 207  warning_scenario.node[29].veinsmobility  posx  ETV
vector 208  warning_scenario.node[29].veinsmobility  posy  ETV
vector 209  warning_scenario.node[29].veinsmobility  speed  ETV
vector 210  warning_scenario.node[29].veinsmobility  acceleration  ETV
vector 211  warning_scenario.node[29].veinsmobility  co2emission  ETV
vector 214  warning_scenario.node[30].veinsmobility  posx  ETV
vector 215  warning_scenario.node[30].veinsmobility  posy  ETV
vector 216  warning_scenario.node[30].veinsmobility  speed  ETV
vector 217  warning_scenario.node[30].veinsmobility  acceleration  ETV
vector 218  warning_scenario.node[30].veinsmobility  co2emission  ETV
vector 221  warning_scenario.node[31].veinsmobility  posx  ETV
vector 222  warning_scenario.node[31].veinsmobility  posy  ETV
vector 223  warning_scenario.node[31].veinsmobility  speed  ETV
vector 224  warning_scenario.node[31].veinsmobility  acceleration  ETV
vector 225  warning_scenario.node[31].veinsmobility  co2emission  ETV
vector 228  warning_scenario.node[32].veinsmobility  posx  ETV
vector 229  warning_scenario.node[32].veinsmobility  posy  ETV
vector 230  warning_scenario.node[32].veinsmobility  speed  ETV
vector 231  warning_scenario.node[32].veinsmobility  acceleration  ETV
vector 232  warning_scenario.node[32].veinsmobility  co2emission  ETV
vector 235  warning_scenario.node[33].veinsmobility  posx  ETV
vector 236  warning_scenario.node[33].veinsmobility  posy  ETV
vector 237  warning_scenario.node[33].veinsmobility  speed  ETV
vector 238  warning_scenario.node[33].veinsmobility  acceleration  ETV
vector 239  warning_scenario.node[33].veinsmobility  co2emission  ETV
vector 242  warning_scenario.node[34].veinsmobility  posx  ETV
vector 243  warning_scenario.node[34].veinsmobility  posy  ETV
vector 244  warning_scenario.node[34].veinsmobility  speed  ETV
vector 245  warning_scenario.node[34].veinsmobility  acceleration  ETV
vector 246  warning_scenario.node[34].veinsmobility  co2emission  ETV
vector 249  warning_scenario.node[35].veinsmobility  posx  ETV
vector 250  warning_scenario.node[35].veinsmobility  posy  ETV
vector 251  warning_scenario.node[35].veinsmobility  speed  ETV
vector 252  warning_scenario.node[35].veinsmobility  acceleration  ETV
vector 253  warning_scenario.node[35].veinsmobility  co2emission  ETV
vector 256  warning_scenario.node[36].veinsmobility  posx  ETV
vector 257  warning_scenario.node[36].veinsmobility  posy  ETV
vector 258  warning_scenario.node[36].veinsmobility  speed  ETV
vector 259  warning_scenario.node[36].veinsmobility  acceleration  ETV
vector 260  warning_scenario.node[36].veinsmobility  co2emission  ETV
vector 263  warning_scenario.node[37].veinsmobility  posx  ETV
vector 264  warning_scenario.node[37].veinsmobility  posy  ETV
vector 265  warning_scenario.node[37].veinsmobility  speed  ETV
vector 266  warning_scenario.node[37].veinsmobility  acceleration  ETV
vector 267  warning_scenario.node[37].veinsmobility  co2emission  ETV
vector 270  warning_scenario.node[38].veinsmobility  posx  ETV
vector 271  warning_scenario.node[38].veinsmobility  posy  ETV
vector 272  warning_scenario.node[38].veinsmobility  speed  ETV
vector 273  warning_scenario.node[38].veinsmobility  acceleration  ETV
vector 274  warning_scenario.node[38].veinsmobility  co2emission  ETV
vector 277  warning_scenario.node[39].veinsmobility  posx  ETV
vector 278  warning_scenario.node[39].veinsmobility  posy  ETV
vector 279  warning_scenario.node[39].veinsmobility  speed  ETV
vector 280  warning_scenario.node[39].veinsmobility  acceleration  ETV
vector 281  warning_scenario.node[39].veinsmobility  co2emission  ETV
vector 284  warning_scenario.node[40].veinsmobility  posx  ETV
vector 285  warning_scenario.node[40].veinsmobility  posy  ETV
vector 286  warning_scenario.node[40].veinsmobility  speed  ETV
vector 287  warning_scenario.node[40].veinsmobility  acceleration  ETV
vector 288  warning_scenario.node[40].veinsmobility  co2emission  ETV
vector 291  warning_scenario.node[41].veinsmobility  posx  ETV
vector 292  warning_scenario.node[41].veinsmobility  posy  ETV
vector 293  warning_scenario.node[41].veinsmobility  speed  ETV
vector 294  warning_scenario.node[41].veinsmobility  acceleration  ETV
vector 295  warning_scenario.node[41].veinsmobility  co2emission  ETV
vector 298  warning_scenario.node[42].veinsmobility  posx  ETV
vector 299  warning_scenario.node[42].veinsmobility  posy  ETV
vector 300  warning_scenario.node[42].veinsmobility  speed  ETV
vector 301  warning_scenario.node[42].veinsmobility  acceleration  ETV
vector 302  warning_scenario.node[42].veinsmobility  co2emission  ETV
vector 305  warning_scenario.node[43].veinsmobility  posx  ETV
vector 306  warning_scenario.node[43].veinsmobility  posy  ETV
vector 307  warning_scenario.node[43].veinsmobility  speed  ETV
vector 308  warning_scenario.node[43].veinsmobility  acceleration  ETV
vector 309  warning_scenario.node[43].veinsmobility  co2emission  ETV
vector 312  warning_scenario.node[44].veinsmobility  posx  ETV
vector 313  warning_scenario.node[44].veinsmobility  posy  ETV
vector 314  warning_scenario.node[44].veinsmobility  speed  ETV
vector 315  warning_scenario.node[44].veinsmobility  acceleration  ETV
vector 316  warning_scenario.node[44].veinsmobility  co2emission  ETV
vector 319  warning_scenario.node[45].veinsmobility  posx  ETV
vector 320  warning_scenario.node[45].veinsmobility  posy  ETV
vector 321  warning_scenario.node[45].veinsmobility  speed  ETV
vector 322  warning_scenario.node[45].veinsmobility  acceleration  ETV
vector 323  warning_scenario.node[45].veinsmobility  co2emission  ETV
vector 326  warning_scenario.node[46].veinsmobility  posx  ETV
vector 327  warning_scenario.node[46].veinsmobility  posy  ETV
vector 328  warning_scenario.node[46].veinsmobility  speed  ETV
vector 329  warning_scenario.node[46].veinsmobility  acceleration  ETV
vector 330  warning_scenario.node[46].veinsmobility  co2emission  ETV
vector 333  warning_scenario.node[47].veinsmobility  posx  ETV
vector 334  warning_scenario.node[47].veinsmobility  posy  ETV
vector 335  warning_scenario.node[47].veinsmobility  speed  ETV
vector 336  warning_scenario.node[47].veinsmobility  acceleration  ETV
vector 337  warning_scenario.node[47].veinsmobility  co2emission  ETV
vector 340  warning_scenario.node[48].veinsmobility  posx  ETV
vector 341  warning_scenario.node[48].veinsmobility  posy  ETV
vector 342  warning_scenario.node[48].veinsmobility  speed  ETV
vector 343  warning_scenario.node[48].veinsmobility  acceleration  ETV
vector 344  warning_scenario.node[48].veinsmobility  co2emission  ETV
vector 347  warning_scenario.node[49].veinsmobility  posx  ETV
vector 348  warning_scenario.node[49].veinsmobility  posy  ETV
vector 349  warning_scenario.node[49].veinsmobility  speed  ETV
vector 350  warning_scenario.node[49].veinsmobility  acceleration  ETV
vector 351  warning_scenario.node[49].veinsmobility  co2emission  ETV
vector 354  warning_scenario.node[50].veinsmobility  posx  ETV
vector 355  warning_scenario.node[50].veinsmobility  posy  ETV
vector 356  warning_scenario.node[50].veinsmobility  speed  ETV
vector 357  warning_scenario.node[50].veinsmobility  acceleration  ETV
vector 358  warning_scenario.node[50].veinsmobility  co2emission  ETV
vector 361  warning_scenario.node[51].veinsmobility  posx  ETV
vector 362  warning_scenario.node[51].veinsmobility  posy  ETV
vector 363  warning_scenario.node[51].veinsmobility  speed  ETV
vector 364  warning_scenario.node[51].veinsmobility  acceleration  ETV
vector 365  warning_scenario.node[51].veinsmobility  co2emission  ETV
vector 368  warning_scenario.node[52].veinsmobility  posx  ETV
vector 369  warning_scenario.node[52].veinsmobility  posy  ETV
vector 370  warning_scenario.node[52].veinsmobility  speed  ETV
vector 371  warning_scenario.node[52].veinsmobility  acceleration  ETV
vector 372  warning_scenario.node[52].veinsmobility  co2emission  ETV
vector 375  warning_scenario.node[53].veinsmobility  posx  ETV
vector 376  warning_scenario.node[53].veinsmobility  posy  ETV
vector 377  warning_scenario.node[53].veinsmobility  speed  ETV
vector 378  warning_scenario.node[53].veinsmobility  acceleration  ETV
vector 379  warning_scenario.node[53].veinsmobility  co2emission  ETV
vector 382  warning_scenario.node[54].veinsmobility  posx  ETV
vector 383  warning_scenario.node[54].veinsmobility  posy  ETV
vector 384  warning_scenario.node[54].veinsmobility  speed  ETV
vector 385  warning_scenario.node[54].veinsmobility  acceleration  ETV
vector 386  warning_scenario.node[54].veinsmobility  co2emission  ETV
vector 389  warning_scenario.node[55].veinsmobility  posx  ETV
vector 390  warning_scenario.node[55].veinsmobility  posy  ETV
vector 391  warning_scenario.node[55].veinsmobility  speed  ETV
vector 392  warning_scenario.node[55].veinsmobility  acceleration  ETV
vector 393  warning_scenario.node[55].veinsmobility  co2emission  ETV
vector 396  warning_scenario.node[56].veinsmobility  posx  ETV
vector 397  warning_scenario.node[56].veinsmobility  posy  ETV
vector 398  warning_scenario.node[56].veinsmobility  speed  ETV
vector 399  warning_scenario.node[56].veinsmobility  acceleration  ETV
vector 400  warning_scenario.node[56].veinsmobility  co2emission  ETV
vector 403  warning_scenario.node[57].veinsmobility  posx  ETV
vector 404  warning_scenario.node[57].veinsmobility  posy  ETV
vector 405  warning_scenario.node[57].veinsmobility  speed  ETV
vector 406  warning_scenario.node[57].veinsmobility  acceleration  ETV
vector 407  warning_scenario.node[57].veinsmobility  co2emission  ETV
vector 410  warning_scenario.node[58].veinsmobility  posx  ETV
vector 411  warning_scenario.node[58].veinsmobility  posy  ETV
vector 412  warning_scenario.node[58].veinsmobility  speed  ETV
vector 413  warning_scenario.node[58].veinsmobility  acceleration  ETV
vector 414  warning_scenario.node[58].veinsmobility  co2emission  ETV
vector 417  warning_scenario.node[59].veinsmobility  posx  ETV
vector 418  warning_scenario.node[59].veinsmobility  posy  ETV
vector 419  warning_scenario.node[59].veinsmobility  speed  ETV
vector 420  warning_scenario.node[59].veinsmobility  acceleration  ETV
vector 421  warning_scenario.node[59].veinsmobility  co2emission  ETV
vector 424  warning_scenario.node[60].veinsmobility  posx  ETV
vector 425  warning_scenario.node[60].veinsmobility  posy  ETV
vector 426  warning_scenario.node[60].veinsmobility  speed  ETV
vector 427  warning_scenario.node[60].veinsmobility  acceleration  ETV
vector 428  warning_scenario.node[60].veinsmobility  co2emission  ETV
vector 431  warning_scenario.node[61].veinsmobility  posx  ETV
vector 432  warning_scenario.node[61].veinsmobility  posy  ETV
vector 433  warning_scenario.node[61].veinsmobility  speed  ETV
vector 434  warning_scenario.node[61].veinsmobility  acceleration  ETV
vector 435  warning_scenario.node[61].veinsmobility  co2emission  ETV
vector 438  warning_scenario.node[62].veinsmobility  posx  ETV
vector 439  warning_scenario.node[62].veinsmobility  posy  ETV
vector 440  warning_scenario.node[62].veinsmobility  speed  ETV
vector 441  warning_scenario.node[62].veinsmobility  acceleration  ETV
vector 442  warning_scenario.node[62].veinsmobility  co2emission  ETV
vector 445  warning_scenario.node[63].veinsmobility  posx  ETV
vector 446  warning_scenario.node[63].veinsmobility  posy  ETV
vector 447  warning_scenario.node[63].veinsmobility  speed  ETV
vector 448  warning_scenario.node[63].veinsmobility  acceleration  ETV
vector 449  warning_scenario.node[63].veinsmobility  co2emission  ETV
vector 452  warning_scenario.node[64].veinsmobility  posx  ETV
vector 453  warning_scenario.node[64].veinsmobility  posy  ETV
vector 454  warning_scenario.node[64].veinsmobility  speed  ETV
vector 455  warning_scenario.node[64].veinsmobility  acceleration  ETV
vector 456  warning_scenario.node[64].veinsmobility  co2emission  ETV
vector 459  warning_scenario.node[65].veinsmobility  posx  ETV
vector 460  warning_scenario.node[65].veinsmobility  posy  ETV
vector 461  warning_scenario.node[65].veinsmobility  speed  ETV
vector 462  warning_scenario.node[65].veinsmobility  acceleration  ETV
vector 463  warning_scenario.node[65].veinsmobility  co2emission  ETV
vector 466  warning_scenario.node[66].veinsmobility  posx  ETV
vector 467  warning_scenario.node[66].veinsmobility  posy  ETV
vector 468  warning_scenario.node[66].veinsmobility  speed  ETV
vector 469  warning_scenario.node[66].veinsmobility  acceleration  ETV
vector 470  warning_scenario.node[66].veinsmobility  co2emission  ETV
vector 473  warning_scenario.node[67].veinsmobility  posx  ETV
vector 474  warning_scenario.node[67].veinsmobility  posy  ETV
vector 475  warning_scenario.node[67].veinsmobility  speed  ETV
vector 476  warning_scenario.node[67].veinsmobility  acceleration  ETV
vector 477  warning_scenario.node[67].veinsmobility  co2emission  ETV
vector 480  warning_scenario.node[68].veinsmobility  posx  ETV
vector 481  warning_scenario.node[68].veinsmobility  posy  ETV
vector 482  warning_scenario.node[68].veinsmobility  speed  ETV
vector 483  warning_scenario.node[68].veinsmobility  acceleration  ETV
vector 484  warning_scenario.node[68].veinsmobility  co2emission  ETV
vector 487  warning_scenario.node[69].veinsmobility  posx  ETV
vector 488  warning_scenario.node[69].veinsmobility  posy  ETV
vector 489  warning_scenario.node[69].veinsmobility  speed  ETV
vector 490  warning_scenario.node[69].veinsmobility  acceleration  ETV
vector 491  warning_scenario.node[69].veinsmobility  co2emission  ETV
vector 494  warning_scenario.node[70].veinsmobility  posx  ETV
vector 495  warning_scenario.node[70].veinsmobility  posy  ETV
vector 496  warning_scenario.node[70].veinsmobility  speed  ETV
vector 497  warning_scenario.node[70].veinsmobility  acceleration  ETV
vector 498  warning_scenario.node[70].veinsmobility  co2emission  ETV
vector 501  warning_scenario.node[71].veinsmobility  posx  ETV
vector 502  warning_scenario.node[71].veinsmobility  posy  ETV
vector 503  warning_scenario.node[71].veinsmobility  speed  ETV
vector 504  warning_scenario.node[71].veinsmobility  acceleration  ETV
vector 505  warning_scenario.node[71].veinsmobility  co2emission  ETV
vector 508  warning_scenario.node[72].veinsmobility  posx  ETV
vector 509  warning_scenario.node[72].veinsmobility  posy  ETV
vector 510  warning_scenario.node[72].veinsmobility  speed  ETV
vector 511  warning_scenario.node[72].veinsmobility  acceleration  ETV
vector 512  warning_scenario.node[72].veinsmobility  co2emission  ETV
vector 515  warning_scenario.node[73].veinsmobility  posx  ETV
vector 516  warning_scenario.node[73].veinsmobility  posy  ETV
vector 517  warning_scenario.node[73].veinsmobility  speed  ETV
vector 518  warning_scenario.node[73].veinsmobility  acceleration  ETV
vector 519  warning_scenario.node[73].veinsmobility  co2emission  ETV
vector 522  warning_scenario.node[74].veinsmobility  posx  ETV
vector 523  warning_scenario.node[74].veinsmobility  posy  ETV
vector 524  warning_scenario.node[74].veinsmobility  speed  ETV
vector 525  warning_scenario.node[74].veinsmobility  acceleration  ETV
vector 526  warning_scenario.node[74].veinsmobility  co2emission  ETV
vector 529  warning_scenario.node[75].veinsmobility  posx  ETV
vector 530  warning_scenario.node[75].veinsmobility  posy  ETV
vector 531  warning_scenario.node[75].veinsmobility  speed  ETV
vector 532  warning_scenario.node[75].veinsmobility  acceleration  ETV
vector 533  warning_scenario.node[75].veinsmobility  co2emission  ETV
vector 536  warning_scenario.node[76].veinsmobility  posx  ETV
vector 537  warning_scenario.node[76].veinsmobility  posy  ETV
vector 538  warning_scenario.node[76].veinsmobility  speed  ETV
vector 539  warning_scenario.node[76].veinsmobility  acceleration  ETV
vector 540  warning_scenario.node[76].veinsmobility  co2emission  ETV
vector 543  warning_scenario.node[77].veinsmobility  posx  ETV
vector 544  warning_scenario.node[77].veinsmobility  posy  ETV
vector 545  warning_scenario.node[77].veinsmobility  speed  ETV
vector 546  warning_scenario.node[77].veinsmobility  acceleration  ETV
vector 547  warning_scenario.node[77].veinsmobility  co2emission  ETV
vector 550  warning_scenario.node[78].veinsmobility  posx  ETV
vector 551  warning_scenario.node[78].veinsmobility  posy  ETV
vector 552  warning_scenario.node[78].veinsmobility  speed  ETV
vector 553  warning_scenario.node[78].veinsmobility  acceleration  ETV
vector 554  warning_scenario.node[78].veinsmobility  co2emission  ETV
vector 557  warning_scenario.node[79].veinsmobility  posx  ETV
vector 558  warning_scenario.node[79].veinsmobility  posy  ETV
vector 559  warning_scenario.node[79].veinsmobility  speed  ETV
vector 560  warning_scenario.node[79].veinsmobility  acceleration  ETV
vector 561  warning_scenario.node[79].veinsmobility  co2emission  ETV
vector 564  warning_scenario.node[80].veinsmobility  posx  ETV
vector 565  warning_scenario.node[80].veinsmobility  posy  ETV
vector 566  warning_scenario.node[80].veinsmobility  speed  ETV
vector 567  warning_scenario.node[80].veinsmobility  acceleration  ETV
vector 568  warning_scenario.node[80].veinsmobility  co2emission  ETV
vector 571  warning_scenario.node[81].veinsmobility  posx  ETV
vector 572  warning_scenario.node[81].veinsmobility  posy  ETV
vector 573  warning_scenario.node[81].veinsmobility  speed  ETV
vector 574  warning_scenario.node[81].veinsmobility  acceleration  ETV
vector 575  warning_scenario.node[81].veinsmobility  co2emission  ETV
vector 578  warning_scenario.node[82].veinsmobility  posx  ETV
vector 579  warning_scenario.node[82].veinsmobility  posy  ETV
vector 580  warning_scenario.node[82].veinsmobility  speed  ETV
vector 581  warning_scenario.node[82].veinsmobility  acceleration  ETV
vector 582  warning_scenario.node[82].veinsmobility  co2emission  ETV
vector 585  warning_scenario.node[83].veinsmobility  posx  ETV
vector 586  warning_scenario.node[83].veinsmobility  posy  ETV
vector 587  warning_scenario.node[83].veinsmobility  speed  ETV
vector 588  warning_scenario.node[83].veinsmobility  acceleration  ETV
vector 589  warning_scenario.node[83].veinsmobility  co2emission  ETV
vector 592  warning_scenario.node[84].veinsmobility  posx  ETV
vector 593  warning_scenario.node[84].veinsmobility  posy  ETV
vector 594  warning_scenario.node[84].veinsmobility  speed  ETV
vector 595  warning_scenario.node[84].veinsmobility  acceleration  ETV
vector 596  warning_scenario.node[84].veinsmobility  co2emission  ETV
vector 599  warning_scenario.node[85].veinsmobility  posx  ETV
vector 600  warning_scenario.node[85].veinsmobility  posy  ETV
vector 601  warning_scenario.node[85].veinsmobility  speed  ETV
vector 602  warning_scenario.node[85].veinsmobility  acceleration  ETV
vector 603  warning_scenario.node[85].veinsmobility  co2emission  ETV
8	34	3	3.9690439751639
8	50	4	4.8734986088453
8	93	5	6.2068327255978
8	136	6	7.2118621755177
8	179	7	8.2287933875323
8	261	8	3.0242689444712
8	343	9	2.410214010884
8	425	10	1.8042481683123
8	556	11	2.2766031729043
8	689	12	1.9910577970912
8	822	13	1.9816353748441
8	1018	14	2.0006543718409
8	1214	15	2.0156733927738
8	1410	16	1.7275773004983
8	1681	17	2.3491339177603
8	1952	18	0.973
8	2222	19	0.973
8	2579	20	0.973
8	2937	21	0.973
8	3294	22	2.9202656039732
8	3750	23	5.1829022112917
8	4207	24	5.8409555110412
8	4662	25	7.0478875101329
8	5230	26	7.1923395024802
8	5796	27	5.7035699225295
8	6362	28	1.8542576609033
8	7050	29	2.071579633465
8	7741	30	2.033070591514
8	8429	31	1.9708367886165
8	9251	32	1.958947003716
8	10075	33	2.1937519865362
8	10898	34	2.0148851452489
8	11866	35	1.9494556216079
8	12835	36	2.1233313202265
8	13804	37	2.0980065652139
8	14929	38	2.0564960049267
8	16057	39	1.8849385975403
8	17183	40	2.0135217775437
8	18481	41	2.1970455854856
8	19781	42	2.0114927076469
8	21076	43	1.8022364453996
8	22554	44	2.4028055099799
8	24036	45	1.7398103572212
8	25516	46	2.0704874226364
8	27187	47	1.9551479348163
8	28861	48	2.0622988460067
8	30532	49	2.1436920788903
8	32411	50	1.9709420801269
8	34290	51	2.2404713242546
8	36169	52	1.6811177558643
8	38268	53	2.1687186093148