file 995945 1473272502                                          
version 2
run nodebug-0-20160907-15:19:14-17098
attr configname nodebug
attr datetime 20160907-15:19:14
attr experiment nodebug
attr inifile omnetpp.ini
attr iterationvars ""
attr iterationvars2 $repetition=0
attr measurement ""
attr network warning_scenario
attr processid 17098
attr repetition 0
attr replication #0
attr resultdir results
attr runnumber 0
attr seedset 0

vector 4  warning_scenario.node[0].veinsmobility  posx  ETV
vector 5  warning_scenario.node[0].veinsmobility  posy  ETV
vector 6  warning_scenario.node[0].veinsmobility  speed  ETV
vector 7  warning_scenario.node[0].veinsmobility  acceleration  ETV
vector 8  warning_scenario.node[0].veinsmobility  co2emission  ETV
vector 11  warning_scenario.node[1].veinsmobility  posx  ETV
vector 12  warning_scenario.node[1].veinsmobility  posy  ETV
vector 13  warning_scenario.node[1].veinsmobility  speed  ETV
vector 14  warning_scenario.node[1].veinsmobility  acceleration  ETV
vector 15  warning_scenario.node[1].veinsmobility  co2emission  ETV
vector 18  warning_scenario.node[2].veinsmobility  posx  ETV
vector 19  warning_scenario.node[2].veinsmobility  posy  ETV
vector 20  warning_scenario.node[2].veinsmobility  speed  ETV
vector 21  warning_scenario.node[2].veinsmobility  acceleration  ETV
vector 22  warning_scenario.node[2].veinsmobility  co2emission  ETV
vector 25  warning_scenario.node[3].veinsmobility  posx  ETV
vector 26  warning_scenario.node[3].veinsmobility  posy  ETV
vector 27  warning_scenario.node[3].veinsmobility  speed  ETV
vector 28  warning_scenario.node[3].veinsmobility  acceleration  ETV
vector 29  warning_scenario.node[3].veinsmobility  co2emission  ETV
vector 32  warning_scenario.node[4].veinsmobility  posx  ETV
vector 33  warning_scenario.node[4].veinsmobility  posy  ETV
vector 34  warning_scenario.node[4].veinsmobility  speed  ETV
vector 35  warning_scenario.node[4].veinsmobility  acceleration  ETV
vector 36  warning_scenario.node[4].veinsmobility  co2emission  ETV
vector 39  warning_scenario.node[5].veinsmobility  posx  ETV
vector 40  warning_scenario.node[5].veinsmobility  posy  ETV
vector 41  warning_scenario.node[5].veinsmobility  speed  ETV
vector 42  warning_scenario.node[5].veinsmobility  acceleration  ETV
vector 43  warning_scenario.node[5].veinsmobility  co2emission  ETV
vector 46  warning_scenario.node[6].veinsmobility  posx  ETV
vector 47  warning_scenario.node[6].veinsmobility  posy  ETV
vector 48  warning_scenario.node[6].veinsmobility  speed  ETV
vector 49  warning_scenario.node[6].veinsmobility  acceleration  ETV
vector 50  warning_scenario.node[6].veinsmobility  co2emission  ETV
vector 53  warning_scenario.node[7].veinsmobility  posx  ETV
vector 54  warning_scenario.node[7].veinsmobility  posy  ETV
vector 55  warning_scenario.node[7].veinsmobility  speed  ETV
vector 56  warning_scenario.node[7].veinsmobility  acceleration  ETV
vector 57  warning_scenario.node[7].veinsmobility  co2emission  ETV
vector 60  warning_scenario.node[8].veinsmobility  posx  ETV
vector 61  warning_scenario.node[8].veinsmobility  posy  ETV
vector 62  warning_scenario.node[8].veinsmobility  speed  ETV
vector 63  warning_scenario.node[8].veinsmobility  acceleration  ETV
vector 64  warning_scenario.node[8].veinsmobility  co2emission  ETV
vector 67  warning_scenario.node[9].veinsmobility  posx  ETV
vector 68  warning_scenario.node[9].veinsmobility  posy  ETV
vector 69  warning_scenario.node[9].veinsmobility  speed  ETV
vector 70  warning_scenario.node[9].veinsmobility  acceleration  ETV
vector 71  warning_scenario.node[9].veinsmobility  co2emission  ETV
vector 74  warning_scenario.node[10].veinsmobility  posx  ETV
vector 75  warning_scenario.node[10].veinsmobility  posy  ETV
vector 76  warning_scenario.node[10].veinsmobility  speed  ETV
vector 77  warning_scenario.node[10].veinsmobility  acceleration  ETV
vector 78  warning_scenario.node[10].veinsmobility  co2emission  ETV
vector 81  warning_scenario.node[11].veinsmobility  posx  ETV
vector 82  warning_scenario.node[11].veinsmobility  posy  ETV
vector 83  warning_scenario.node[11].veinsmobility  speed  ETV
vector 84  warning_scenario.node[11].veinsmobility  acceleration  ETV
vector 85  warning_scenario.node[11].veinsmobility  co2emission  ETV
vector 88  warning_scenario.node[12].veinsmobility  posx  ETV
vector 89  warning_scenario.node[12].veinsmobility  posy  ETV
vector 90  warning_scenario.node[12].veinsmobility  speed  ETV
vector 91  warning_scenario.node[12].veinsmobility  acceleration  ETV
vector 92  warning_scenario.node[12].veinsmobility  co2emission  ETV
vector 95  warning_scenario.node[13].veinsmobility  posx  ETV
vector 96  warning_scenario.node[13].veinsmobility  posy  ETV
vector 97  warning_scenario.node[13].veinsmobility  speed  ETV
vector 98  warning_scenario.node[13].veinsmobility  acceleration  ETV
vector 99  warning_scenario.node[13].veinsmobility  co2emission  ETV
vector 102  warning_scenario.node[14].veinsmobility  posx  ETV
vector 103  warning_scenario.node[14].veinsmobility  posy  ETV
vector 104  warning_scenario.node[14].veinsmobility  speed  ETV
vector 105  warning_scenario.node[14].veinsmobility  acceleration  ETV
vector 106  warning_scenario.node[14].veinsmobility  co2emission  ETV
vector 109  warning_scenario.node[15].veinsmobility  posx  ETV
vector 110  warning_scenario.node[15].veinsmobility  posy  ETV
vector 111  warning_scenario.node[15].veinsmobility  speed  ETV
vector 112  warning_scenario.node[15].veinsmobility  acceleration  ETV
vector 113  warning_scenario.node[15].veinsmobility  co2emission  ETV
vector 116  warning_scenario.node[16].veinsmobility  posx  ETV
vector 117  warning_scenario.node[16].veinsmobility  posy  ETV
vector 118  warning_scenario.node[16].veinsmobility  speed  ETV
vector 119  warning_scenario.node[16].veinsmobility  acceleration  ETV
vector 120  warning_scenario.node[16].veinsmobility  co2emission  ETV
vector 123  warning_scenario.node[17].veinsmobility  posx  ETV
vector 124  warning_scenario.node[17].veinsmobility  posy  ETV
vector 125  warning_scenario.node[17].veinsmobility  speed  ETV
vector 126  warning_scenario.node[17].veinsmobility  acceleration  ETV
vector 127  warning_scenario.node[17].veinsmobility  co2emission  ETV
vector 130  warning_scenario.node[18].veinsmobility  posx  ETV
vector 131  warning_scenario.node[18].veinsmobility  posy  ETV
vector 132  warning_scenario.node[18].veinsmobility  speed  ETV
vector 133  warning_scenario.node[18].veinsmobility  acceleration  ETV
vector 134  warning_scenario.node[18].veinsmobility  co2emission  ETV
vector 137  warning_scenario.node[19].veinsmobility  posx  ETV
vector 138  warning_scenario.node[19].veinsmobility  posy  ETV
vector 139  warning_scenario.node[19].veinsmobility  speed  ETV
vector 140  warning_scenario.node[19].veinsmobility  acceleration  ETV
vector 141  warning_scenario.node[19].veinsmobility  co2emission  ETV
vector 144  warning_scenario.node[20].veinsmobility  posx  ETV
vector 145  warning_scenario.node[20].veinsmobility  posy  ETV
vector 146  warning_scenario.node[20].veinsmobility  speed  ETV
vector 147  warning_scenario.node[20].veinsmobility  acceleration  ETV
vector 148  warning_scenario.node[20].veinsmobility  co2emission  ETV
vector 151  warning_scenario.node[21].veinsmobility  posx  ETV
vector 152  warning_scenario.node[21].veinsmobility  posy  ETV
vector 153  warning_scenario.node[21].veinsmobility  speed  ETV
vector 154  warning_scenario.node[21].veinsmobility  acceleration  ETV
vector 155  warning_scenario.node[21].veinsmobility  co2emission  ETV
vector 158  warning_scenario.node[22].veinsmobility  posx  ETV
vector 159  warning_scenario.node[22].veinsmobility  posy  ETV
vector 160  warning_scenario.node[22].veinsmobility  speed  ETV
vector 161  warning_scenario.node[22].veinsmobility  acceleration  ETV
vector 162  warning_scenario.node[22].veinsmobility  co2emission  ETV
vector 165  warning_scenario.node[23].veinsmobility  posx  ETV
vector 166  warning_scenario.node[23].veinsmobility  posy  ETV
vector 167  warning_scenario.node[23].veinsmobility  speed  ETV
vector 168  warning_scenario.node[23].veinsmobility  acceleration  ETV
vector 169  warning_scenario.node[23].veinsmobility  co2emission  ETV
vector 172  warning_scenario.node[24].veinsmobility  posx  ETV
vector 173  warning_scenario.node[24].veinsmobility  posy  ETV
vector 174  warning_scenario.node[24].veinsmobility  speed  ETV
vector 175  warning_scenario.node[24].veinsmobility  acceleration  ETV
vector 176  warning_scenario.node[24].veinsmobility  co2emission  ETV
vector 179  warning_scenario.node[25].veinsmobility  posx  ETV
vector 180  warning_scenario.node[25].veinsmobility  posy  ETV
vector 181  warning_scenario.node[25].veinsmobility  speed  ETV
vector 182  warning_scenario.node[25].veinsmobility  acceleration  ETV
vector 183  warning_scenario.node[25].veinsmobility  co2emission  ETV
vector 186  warning_scenario.node[26].veinsmobility  posx  ETV
vector 187  warning_scenario.node[26].veinsmobility  posy  ETV
vector 188  warning_scenario.node[26].veinsmobility  speed  ETV
vector 189  warning_scenario.node[26].veinsmobility  acceleration  ETV
vector 190  warning_scenario.node[26].veinsmobility  co2emission  ETV
vector 193  warning_scenario.node[27].veinsmobility  posx  ETV
vector 194  warning_scenario.node[27].veinsmobility  posy  ETV
vector 195  warning_scenario.node[27].veinsmobility  speed  ETV
vector 196  warning_scenario.node[27].veinsmobility  acceleration  ETV
vector 197  warning_scenario.node[27].veinsmobility  co2emission  ETV
vector 200  warning_scenario.node[28].veinsmobility  posx  ETV
vector 201  warning_scenario.node[28].veinsmobility  posy  ETV
vector 202  warning_scenario.node[28].veinsmobility  speed  ETV
vector 203  warning_scenario.node[28].veinsmobility  acceleration  ETV
vector 204  warning_scenario.node[28].veinsmobility  co2emission  ETV
vector 207  warning_scenario.node[29].veinsmobility  posx  ETV
vector 208  warning_scenario.node[29].veinsmobility  posy  ETV
vector 209  warning_scenario.node[29].veinsmobility  speed  ETV
vector 210  warning_scenario.node[29].veinsmobility  acceleration  ETV
vector 211  warning_scenario.node[29].veinsmobility  co2emission  ETV
vector 214  warning_scenario.node[30].veinsmobility  posx  ETV
vector 215  warning_scenario.node[30].veinsmobility  posy  ETV
vector 216  warning_scenario.node[30].veinsmobility  speed  ETV
vector 217  warning_scenario.node[30].veinsmobility  acceleration  ETV
vector 218  warning_scenario.node[30].veinsmobility  co2emission  ETV
vector 221  warning_scenario.node[31].veinsmobility  posx  ETV
vector 222  warning_scenario.node[31].veinsmobility  posy  ETV
vector 223  warning_scenario.node[31].veinsmobility  speed  ETV
vector 224  warning_scenario.node[31].veinsmobility  acceleration  ETV
vector 225  warning_scenario.node[31].veinsmobility  co2emission  ETV
vector 228  warning_scenario.node[32].veinsmobility  posx  ETV
vector 229  warning_scenario.node[32].veinsmobility  posy  ETV
vector 230  warning_scenario.node[32].veinsmobility  speed  ETV
vector 231  warning_scenario.node[32].veinsmobility  acceleration  ETV
vector 232  warning_scenario.node[32].veinsmobility  co2emission  ETV
vector 235  warning_scenario.node[33].veinsmobility  posx  ETV
vector 236  warning_scenario.node[33].veinsmobility  posy  ETV
vector 237  warning_scenario.node[33].veinsmobility  speed  ETV
vector 238  warning_scenario.node[33].veinsmobility  acceleration  ETV
vector 239  warning_scenario.node[33].veinsmobility  co2emission  ETV
vector 242  warning_scenario.node[34].veinsmobility  posx  ETV
vector 243  warning_scenario.node[34].veinsmobility  posy  ETV
vector 244  warning_scenario.node[34].veinsmobility  speed  ETV
vector 245  warning_scenario.node[34].veinsmobility  acceleration  ETV
vector 246  warning_scenario.node[34].veinsmobility  co2emission  ETV
vector 249  warning_scenario.node[35].veinsmobility  posx  ETV
vector 250  warning_scenario.node[35].veinsmobility  posy  ETV
vector 251  warning_scenario.node[35].veinsmobility  speed  ETV
vector 252  warning_scenario.node[35].veinsmobility  acceleration  ETV
vector 253  warning_scenario.node[35].veinsmobility  co2emission  ETV
vector 256  warning_scenario.node[36].veinsmobility  posx  ETV
vector 257  warning_scenario.node[36].veinsmobility  posy  ETV
vector 258  warning_scenario.node[36].veinsmobility  speed  ETV
vector 259  warning_scenario.node[36].veinsmobility  acceleration  ETV
vector 260  warning_scenario.node[36].veinsmobility  co2emission  ETV
vector 263  warning_scenario.node[37].veinsmobility  posx  ETV
vector 264  warning_scenario.node[37].veinsmobility  posy  ETV
vector 265  warning_scenario.node[37].veinsmobility  speed  ETV
vector 266  warning_scenario.node[37].veinsmobility  acceleration  ETV
vector 267  warning_scenario.node[37].veinsmobility  co2emission  ETV
vector 270  warning_scenario.node[38].veinsmobility  posx  ETV
vector 271  warning_scenario.node[38].veinsmobility  posy  ETV
vector 272  warning_scenario.node[38].veinsmobility  speed  ETV
vector 273  warning_scenario.node[38].veinsmobility  acceleration  ETV
vector 274  warning_scenario.node[38].veinsmobility  co2emission  ETV
vector 277  warning_scenario.node[39].veinsmobility  posx  ETV
vector 278  warning_scenario.node[39].veinsmobility  posy  ETV
vector 279  warning_scenario.node[39].veinsmobility  speed  ETV
vector 280  warning_scenario.node[39].veinsmobility  acceleration  ETV
vector 281  warning_scenario.node[39].veinsmobility  co2emission  ETV
vector 284  warning_scenario.node[40].veinsmobility  posx  ETV
vector 285  warning_scenario.node[40].veinsmobility  posy  ETV
vector 286  warning_scenario.node[40].veinsmobility  speed  ETV
vector 287  warning_scenario.node[40].veinsmobility  acceleration  ETV
vector 288  warning_scenario.node[40].veinsmobility  co2emission  ETV
vector 291  warning_scenario.node[41].veinsmobility  posx  ETV
vector 292  warning_scenario.node[41].veinsmobility  posy  ETV
vector 293  warning_scenario.node[41].veinsmobility  speed  ETV
vector 294  warning_scenario.node[41].veinsmobility  acceleration  ETV
vector 295  warning_scenario.node[41].veinsmobility  co2emission  ETV
vector 298  warning_scenario.node[42].veinsmobility  posx  ETV
vector 299  warning_scenario.node[42].veinsmobility  posy  ETV
vector 300  warning_scenario.node[42].veinsmobility  speed  ETV
vector 301  warning_scenario.node[42].veinsmobility  acceleration  ETV
vector 302  warning_scenario.node[42].veinsmobility  co2emission  ETV
vector 305  warning_scenario.node[43].veinsmobility  posx  ETV
vector 306  warning_scenario.node[43].veinsmobility  posy  ETV
vector 307  warning_scenario.node[43].veinsmobility  speed  ETV
vector 308  warning_scenario.node[43].veinsmobility  acceleration  ETV
vector 309  warning_scenario.node[43].veinsmobility  co2emission  ETV
vector 312  warning_scenario.node[44].veinsmobility  posx  ETV
vector 313  warning_scenario.node[44].veinsmobility  posy  ETV
vector 314  warning_scenario.node[44].veinsmobility  speed  ETV
vector 315  warning_scenario.node[44].veinsmobility  acceleration  ETV
vector 316  warning_scenario.node[44].veinsmobility  co2emission  ETV
vector 319  warning_scenario.node[45].veinsmobility  posx  ETV
vector 320  warning_scenario.node[45].veinsmobility  posy  ETV
vector 321  warning_scenario.node[45].veinsmobility  speed  ETV
vector 322  warning_scenario.node[45].veinsmobility  acceleration  ETV
vector 323  warning_scenario.node[45].veinsmobility  co2emission  ETV
vector 326  warning_scenario.node[46].veinsmobility  posx  ETV
vector 327  warning_scenario.node[46].veinsmobility  posy  ETV
vector 328  warning_scenario.node[46].veinsmobility  speed  ETV
vector 329  warning_scenario.node[46].veinsmobility  acceleration  ETV
vector 330  warning_scenario.node[46].veinsmobility  co2emission  ETV
vector 333  warning_scenario.node[47].veinsmobility  posx  ETV
vector 334  warning_scenario.node[47].veinsmobility  posy  ETV
vector 335  warning_scenario.node[47].veinsmobility  speed  ETV
vector 336  warning_scenario.node[47].veinsmobility  acceleration  ETV
vector 337  warning_scenario.node[47].veinsmobility  co2emission  ETV
vector 340  warning_scenario.node[48].veinsmobility  posx  ETV
vector 341  warning_scenario.node[48].veinsmobility  posy  ETV
vector 342  warning_scenario.node[48].veinsmobility  speed  ETV
vector 343  warning_scenario.node[48].veinsmobility  acceleration  ETV
vector 344  warning_scenario.node[48].veinsmobility  co2emission  ETV
vector 347  warning_scenario.node[49].veinsmobility  posx  ETV
vector 348  warning_scenario.node[49].veinsmobility  posy  ETV
vector 349  warning_scenario.node[49].veinsmobility  speed  ETV
vector 350  warning_scenario.node[49].veinsmobility  acceleration  ETV
vector 351  warning_scenario.node[49].veinsmobility  co2emission  ETV
vector 354  warning_scenario.node[50].veinsmobility  posx  ETV
vector 355  warning_scenario.node[50].veinsmobility  posy  ETV
vector 356  warning_scenario.node[50].veinsmobility  speed  ETV
vector 357  warning_scenario.node[50].veinsmobility  acceleration  ETV
vector 358  warning_scenario.node[50].veinsmobility  co2emission  ETV
vector 361  warning_scenario.node[51].veinsmobility  posx  ETV
vector 362  warning_scenario.node[51].veinsmobility  posy  ETV
vector 363  warning_scenario.node[51].veinsmobility  speed  ETV
vector 364  warning_scenario.node[51].veinsmobility  acceleration  ETV
vector 365  warning_scenario.node[51].veinsmobility  co2emission  ETV
vector 368  warning_scenario.node[52].veinsmobility  posx  ETV
vector 369  warning_scenario.node[52].veinsmobility  posy  ETV
vector 370  warning_scenario.node[52].veinsmobility  speed  ETV
vector 371  warning_scenario.node[52].veinsmobility  acceleration  ETV
vector 372  warning_scenario.node[52].veinsmobility  co2emission  ETV
vector 375  warning_scenario.node[53].veinsmobility  posx  ETV
vector 376  warning_scenario.node[53].veinsmobility  posy  ETV
vector 377  warning_scenario.node[53].veinsmobility  speed  ETV
vector 378  warning_scenario.node[53].veinsmobility  acceleration  ETV
vector 379  warning_scenario.node[53].veinsmobility  co2emission  ETV
vector 382  warning_scenario.node[54].veinsmobility  posx  ETV
vector 383  warning_scenario.node[54].veinsmobility  posy  ETV
vector 384  warning_scenario.node[54].veinsmobility  speed  ETV
vector 385  warning_scenario.node[54].veinsmobility  acceleration  ETV
vector 386  warning_scenario.node[54].veinsmobility  co2emission  ETV
vector 389  warning_scenario.node[55].veinsmobility  posx  ETV
vector 390  warning_scenario.node[55].veinsmobility  posy  ETV
vector 391  warning_scenario.node[55].veinsmobility  speed  ETV
vector 392  warning_scenario.node[55].veinsmobility  acceleration  ETV
vector 393  warning_scenario.node[55].veinsmobility  co2emission  ETV
vector 396  warning_scenario.node[56].veinsmobility  posx  ETV
vector 397  warning_scenario.node[56].veinsmobility  posy  ETV
vector 398  warning_scenario.node[56].veinsmobility  speed  ETV
vector 399  warning_scenario.node[56].veinsmobility  acceleration  ETV
vector 400  warning_scenario.node[56].veinsmobility  co2emission  ETV
vector 403  warning_scenario.node[57].veinsmobility  posx  ETV
vector 404  warning_scenario.node[57].veinsmobility  posy  ETV
vector 405  warning_scenario.node[57].veinsmobility  speed  ETV
vector 406  warning_scenario.node[57].veinsmobility  acceleration  ETV
vector 407  warning_scenario.node[57].veinsmobility  co2emission  ETV
vector 410  warning_scenario.node[58].veinsmobility  posx  ETV
vector 411  warning_scenario.node[58].veinsmobility  posy  ETV
vector 412  warning_scenario.node[58].veinsmobility  speed  ETV
vector 413  warning_scenario.node[58].veinsmobility  acceleration  ETV
vector 414  warning_scenario.node[58].veinsmobility  co2emission  ETV
vector 417  warning_scenario.node[59].veinsmobility  posx  ETV
vector 418  warning_scenario.node[59].veinsmobility  posy  ETV
vector 419  warning_scenario.node[59].veinsmobility  speed  ETV
vector 420  warning_scenario.node[59].veinsmobility  acceleration  ETV
vector 421  warning_scenario.node[59].veinsmobility  co2emission  ETV
vector 424  warning_scenario.node[60].veinsmobility  posx  ETV
vector 425  warning_scenario.node[60].veinsmobility  posy  ETV
vector 426  warning_scenario.node[60].veinsmobility  speed  ETV
vector 427  warning_scenario.node[60].veinsmobility  acceleration  ETV
vector 428  warning_scenario.node[60].veinsmobility  co2emission  ETV
vector 431  warning_scenario.node[61].veinsmobility  posx  ETV
vector 432  warning_scenario.node[61].veinsmobility  posy  ETV
vector 433  warning_scenario.node[61].veinsmobility  speed  ETV
vector 434  warning_scenario.node[61].veinsmobility  acceleration  ETV
vector 435  warning_scenario.node[61].veinsmobility  co2emission  ETV
vector 438  warning_scenario.node[62].veinsmobility  posx  ETV
vector 439  warning_scenario.node[62].veinsmobility  posy  ETV
vector 440  warning_scenario.node[62].veinsmobility  speed  ETV
vector 441  warning_scenario.node[62].veinsmobility  acceleration  ETV
vector 442  warning_scenario.node[62].veinsmobility  co2emission  ETV
vector 445  warning_scenario.node[63].veinsmobility  posx  ETV
vector 446  warning_scenario.node[63].veinsmobility  posy  ETV
vector 447  warning_scenario.node[63].veinsmobility  speed  ETV
vector 448  warning_scenario.node[63].veinsmobility  acceleration  ETV
vector 449  warning_scenario.node[63].veinsmobility  co2emission  ETV
vector 452  warning_scenario.node[64].veinsmobility  posx  ETV
vector 453  warning_scenario.node[64].veinsmobility  posy  ETV
vector 454  warning_scenario.node[64].veinsmobility  speed  ETV
vector 455  warning_scenario.node[64].veinsmobility  acceleration  ETV
vector 456  warning_scenario.node[64].veinsmobility  co2emission  ETV
8	21764 5307 34 1721009 3 195 193 0.973 8.2287933875323 448.94887891797 1325.3778928723
7	27071 5833 34 1721009 3 195 193 -3.2727100428296 2.094907346114 9.9137054327331 110.1470586241
6	32904 5418 18 1721009 2 195 194 3.6253133033653 13.998597038973 2575.6205644254 35008.270769752
5	38322 5439 2 1721009 1 195 195 1316.2835788466 2120.966550488 332376.65667299 581081430.1297
4	43761 5440 2 1721009 1 195 195 809.42699228751 2450.6439768443 364246.85878054 731265350.55292
15	49201 5406 136 1721009 6 195 190 0.973 8.5984233723122 440.52051491499 1330.1941000076
14	54607 5949 136 1721009 6 195 190 -2.6641798728933 2.4319223827752 9.9004516370469 99.110444024954
13	60556 5531 93 1721009 5 195 191 3.8475002858412 13.998838232881 2526.3109576564 34252.867223812
12	66087 5552 50 1721009 4 195 192 1319.737267741 2120.6601283913 328782.53286668 577041879.03522
11	71639 5561 50 1721009 4 195 192 859.71874607308 2450.2901292811 362681.74021859 732085350.71032
78	77200 4686 10075 1721009 33 195 163 0.973 9.317041191443 385.79261519387 1240.6257718641
77	81886 5158 10075 1721009 33 195 163 -2.7327694335153 2.4693662577961 9.9947864915602 102.25028075811
76	87044 4826 9251 1721009 32 195 164 3.7719179594186 13.999881321082 2145.5203574562 28919.175415715
75	91870 4840 8429 1721009 31 195 165 1353.7594329836 2120.6961540338 292932.21743792 529583183.37623
74	96710 4846 8429 1721009 31 195 165 1238.6990939368 2450.2100758458 334904.57116292 703620499.34051
85	101556 4599 12835 1721009 36 195 160 0.973 8.6769668726369 378.4635996934 1198.5657915941
84	106155 5080 12835 1721009 36 195 160 -2.6442959842636 2.41885096821 9.6592233311777 98.580047287409
83	111235 4744 11866 1721009 35 195 161 3.5979554636973 13.999769621568 2103.4030260353 28311.369437033
82	115979 4777 10898 1721009 34 195 162 1358.9497089898 2120.6482186075 288897.25740486 524188612.97286
81	120756 4763 10898 1721009 34 195 162 1279.5968625112 2450.3105315034 331084.527415 698668557.67827
92	125519 4510 16057 1721009 39 195 157 0.973 9.2464137267879 372.2151341264 1192.7842283244
91	130029 4988 16057 1721009 39 195 157 -2.7206435639667 2.3689612603374 9.6558831303167 98.664799468602
90	135017 4657 14929 1721009 38 195 158 3.5098866767555 13.999022939045 2062.487639873 27747.274939007
89	139674 4684 13804 1721009 37 195 159 1365.8828725237 2120.6437143376 284762.74354273 518459172.83497
88	144358 4678 13804 1721009 37 195 159 1320.1224463639 2450.324661662 327159.94336408 693490524.17008
99	149036 4427 19781 1721009 42 195 154 0.973 8.403777139836 366.89173083879 1181.9634945847
98	153463 4879 19781 1721009 42 195 154 -2.699339306652 2.4457151379646 9.8894839534836 101.62668019679
97	158342 4571 18481 1721009 41 195 155 3.5880101831732 13.999074614726 2020.4560001398 27167.300243765
96	162913 4600 17183 1721009 40 195 156 1373.0170857953 2120.698964986 280605.82243625 512647956.07645
95	167513 4606 17183 1721009 40 195 156 1361.2422469672 2450.1998295075 323192.68087172 688307485.55871
106	172119 4495 24036 1721009 45 195 151 0.973 9.3557538393233 360.87864967355 1176.1409377908
105	176614 4958 24036 1721009 45 195 151 -2.6889356313843 2.4398849527887 10.022702562613 101.61071234083
104	181572 4643 22554 1721009 44 195 152 3.7233791932297 13.999286729819 1977.4130481914 26569.274355978
103	186215 4669 21076 1721009 43 195 153 1386.6803460354 2120.7222378366 276569.06437319 507280548.55547
102	190884 4662 21076 1721009 43 195 153 1403.1903735222 2450.1502983691 319202.43691868 683124984.52769
113	195546 4415 28861 1721009 48 195 148 0.973 7.904351904973 354.21326640382 1132.0757994237
112	199961 4854 28861 1721009 48 195 148 -2.7364491375631 2.2913225320168 10.099636349732 98.046324081759
111	204815 4554 27187 1721009 47 195 149 3.7796055090364 13.997183311654 1934.3994555664 25956.152808614
110	209369 4578 25516 1721009 46 195 150 1404.904565285 2120.7034991635 272432.22674843 501608252.82221
109	213947 4580 25516 1721009 46 195 150 1441.8452563114 2450.1910539232 314975.75507677 677170510.99278
120	218527 4326 34290 1721009 51 195 145 0.973 8.3343886081931 348.43882191249 1141.732080483
119	222853 4763 34290 1721009 51 195 145 -2.7663840036517 2.442366082943 9.7733237391967 99.722135703048
118	227616 4457 32411 1721009 50 195 146 3.7525844694042 13.99945491944 1892.6599622864 25383.946080632
117	232073 4497 30532 1721009 49 195 147 1428.0606186111 2120.7000169661 268231.5193501 495748787.27996
116	236570 4494 30532 1721009 49 195 147 1476.9477779617 2450.1978159561 310632.77327552 670897096.78823
127	241064 4246 40368 1721009 54 195 142 0.973 8.4622214470053 342.51534422949 1127.3815535911
126	245310 4661 40368 1721009 54 195 142 -2.6987876356741 2.3782468883507 10.14046364664 99.592039251796
125	249971 4379 38268 1721009 53 195 143 3.7452973992093 13.999955156983 1850.9191673286 24790.926034314
124	254350 4408 36169 1721009 52 195 144 1451.9450826487 2120.7119909069 263850.0183975 489306882.51255
123	258758 4410 36169 1721009 52 195 144 1509.6947463234 2450.1793420549 306121.98353016 664091139.2763
134	263168 4158 47122 1721009 57 195 139 0.973 8.396132284998 335.75663159044 1095.8717567374
133	267326 4575 47122 1721009 57 195 139 -2.7826885217933 2.4087612578622 9.8173642247947 97.747678038903
132	271901 4295 44795 1721009 56 195 140 3.851786440565 13.997057612108 1809.158204691 24201.249516429
131	276196 4324 42465 1721009 55 195 141 1479.5105297808 2120.7398835449 259457.69871448 482862947.47801
130	280520 4320 42465 1721009 55 195 141 1541.5621171221 2450.1476789686 301588.08868238 657271290.71417
141	284840 4074 54587 1721009 60 195 136 0.973 8.3206929924482 329.94347145862 1089.2154480264
140	288914 4468 54587 1721009 60 195 136 -2.7835282340484 2.4175294248504 9.9480520606174 97.445489260898
139	293382 4215 52019 1721009 59 195 137 3.7493905947211 13.999712974976 1767.7470585245 23629.788659684
138	297597 4233 49450 1721009 58 195 138 1507.5844188575 2120.686703152 255014.78129116 476308122.9415
137	301830 4224 49450 1721009 58 195 138 1572.0744295021 2450.2326801199 296884.28390302 649839058.53255
22	306054 5328 343 1721009 9 195 187 0.973 8.7055248326343 435.46796880877 1331.9119491995
21	311382 5865 343 1721009 9 195 187 -2.8665827571004 2.5262258906802 9.9348674652536 107.49144122333
20	317247 5453 261 1721009 8 195 188 3.3621719615322 13.997010356491 2482.2616043051 33629.806274466
19	322700 5487 179 1721009 7 195 189 1323.2691866327 2120.6997255469 324926.31059066 572159467.87969
18	328187 5490 179 1721009 7 195 189 903.85721084895 2450.2085794064 360303.01992543 730567175.68166
148	333677 3992 62808 1721009 63 195 133 0.973 8.4489020185759 323.95267701206 1090.9908745516
147	337669 4375 62808 1721009 63 195 133 -2.7131600993667 2.2495028855139 9.8844391763983 98.60940898558
146	342044 4121 59984 1721009 62 195 134 3.5752675009753 13.998933901957 1727.1757331575 23073.614271197
145	346165 4156 57158 1721009 61 195 135 1536.5889661554 2120.6562828794 250463.14858207 469399113.6426
144	350321 4148 57158 1721009 61 195 135 1600.8073421227 2450.2919613139 292080.28055663 642100426.8923
155	354469 3882 71807 1721009 66 195 130 0.973 8.3716996904911 317.38518613845 1082.2511748279
154	358351 4272 71807 1721009 66 195 130 -2.6919068050748 2.2154459103919 9.9074678408147 99.060077454479
153	362623 4034 68718 1721009 65 195 131 3.7186333630672 13.998934576176 1687.1177036964 22524.132833061
152	366657 4068 65627 1721009 64 195 132 1565.1034844713 2120.7125415299 245725.35063757 461864050.17615
151	370725 4064 65627 1721009 64 195 132 1629.4105468569 2450.1770743481 287236.48613178 634302266.37085
162	374789 3803 81630 1721009 69 195 127 0.973 7.8091550625881 311.11424062665 1058.3013905755
161	378592 4194 81630 1721009 69 195 127 -2.7042216931997 2.4016275006393 9.8461643874389 99.577492794351
160	382786 3945 78263 1721009 68 195 128 3.609261437838 13.997801567607 1642.6599673157 21882.348638754
159	386731 3979 74898 1721009 67 195 129 1578.4548301455 2120.6683972897 241082.41400055 454722962.63354
158	390710 3979 74898 1721009 67 195 129 1660.1710525424 2450.2696918793 282331.4267767 626267216.52888